<?xml version="1.0" encoding="UTF-8"?>

<!-- generated on 2025-05-27 23:38:46 by Eclipse SUMO GUI Version 1.23.1
<sumoConfiguration xmlns:xsi="http://www.w3.org/2001/XMLSchema-instance" xsi:noNamespaceSchemaLocation="http://sumo.dlr.de/xsd/sumoConfiguration.xsd">

    <input>
        <net-file value="C:\Users\trose\Workspace\Fellowship &apos;25 Personal\2025-Fellowship-Personal\SUMO\Existing Sims with Focus on Realistic Demands\Bologna_small-0.29.0\pasubio\pasubio_buslanes.net.xml"/>
        <route-files value="C:\Users\trose\Workspace\Fellowship &apos;25 Personal\2025-Fellowship-Personal\SUMO\Existing Sims with Focus on Realistic Demands\Bologna_small-0.29.0\pasubio\pasubio.rou.xml"/>
        <additional-files value="C:\Users\trose\Workspace\Fellowship &apos;25 Personal\2025-Fellowship-Personal\SUMO\Existing Sims with Focus on Realistic Demands\Bologna_small-0.29.0\pasubio\pasubio_vtypes.add.xml,C:\Users\trose\Workspace\Fellowship &apos;25 Personal\2025-Fellowship-Personal\SUMO\Existing Sims with Focus on Realistic Demands\Bologna_small-0.29.0\pasubio\pasubio_bus_stops.add.xml,C:\Users\trose\Workspace\Fellowship &apos;25 Personal\2025-Fellowship-Personal\SUMO\Existing Sims with Focus on Realistic Demands\Bologna_small-0.29.0\pasubio\pasubio_busses.rou.xml,C:\Users\trose\Workspace\Fellowship &apos;25 Personal\2025-Fellowship-Personal\SUMO\Existing Sims with Focus on Realistic Demands\Bologna_small-0.29.0\pasubio\pasubio_detectors.add.xml,C:\Users\trose\Workspace\Fellowship &apos;25 Personal\2025-Fellowship-Personal\SUMO\Existing Sims with Focus on Realistic Demands\Bologna_small-0.29.0\pasubio\pasubio_tls.add.xml"/>
    </input>

    <output>
        <tripinfo-output value="C:\Users\trose\Workspace\Fellowship &apos;25 Personal\2025-Fellowship-Personal\SUMO\Existing Sims with Focus on Realistic Demands\Bologna_small-0.29.0\pasubio\tripinfos.xml"/>
    </output>

    <report>
        <log value="C:\Users\trose\Workspace\Fellowship &apos;25 Personal\2025-Fellowship-Personal\SUMO\Existing Sims with Focus on Realistic Demands\Bologna_small-0.29.0\pasubio\sumo_log.txt"/>
        <no-step-log value="true"/>
    </report>

</sumoConfiguration>
-->

<tripinfos xmlns:xsi="http://www.w3.org/2001/XMLSchema-instance" xsi:noNamespaceSchemaLocation="http://sumo.dlr.de/xsd/tripinfo_file.xsd">
    <tripinfo id="Pertini_20_2" depart="4.00" departLane="63[0]_2" departPos="0.00" departSpeed="0.00" departDelay="0.00" arrival="74.00" arrivalLane="4[1][1][1]_1" arrivalPos="172.70" arrivalSpeed="13.35" duration="70.00" routeLength="889.67" waitingTime="0.00" waitingCount="0" stopTime="0.00" timeLoss="6.69" rerouteNo="0" devices="tripinfo_Pertini_20_2" vType="passenger2b" speedFactor="1.02" vaporized=""/>
    <tripinfo id="Pertini_20_0" depart="0.00" departLane="63[0]_2" departPos="0.00" departSpeed="0.00" departDelay="0.00" arrival="76.00" arrivalLane="4[1][1][1]_0" arrivalPos="172.70" arrivalSpeed="14.62" duration="76.00" routeLength="889.67" waitingTime="4.00" waitingCount="1" stopTime="0.00" timeLoss="15.63" rerouteNo="0" devices="tripinfo_Pertini_20_0" vType="passenger1" speedFactor="1.08" vaporized=""/>
    <tripinfo id="Pertini_20_1" depart="4.00" departLane="63[0]_1" departPos="0.00" departSpeed="0.00" departDelay="2.00" arrival="76.00" arrivalLane="4[1][1][1]_1" arrivalPos="172.70" arrivalSpeed="13.95" duration="72.00" routeLength="889.67" waitingTime="0.00" waitingCount="0" stopTime="0.00" timeLoss="10.02" rerouteNo="0" devices="tripinfo_Pertini_20_1" vType="passenger1" speedFactor="1.05" vaporized=""/>
    <tripinfo id="Pertini_20_7" depart="15.00" departLane="63[0]_2" departPos="0.00" departSpeed="0.00" departDelay="0.00" arrival="79.00" arrivalLane="4[1][1][1]_0" arrivalPos="172.70" arrivalSpeed="14.33" duration="64.00" routeLength="889.67" waitingTime="0.00" waitingCount="0" stopTime="0.00" timeLoss="5.33" rerouteNo="0" devices="tripinfo_Pertini_20_7" vType="passenger1" speedFactor="1.10" vaporized=""/>
    <tripinfo id="Prati_Capraia_10_0" depart="0.00" departLane="3[0]_0" departPos="0.00" departSpeed="0.00" departDelay="0.00" arrival="80.00" arrivalLane="10_0" arrivalPos="226.64" arrivalSpeed="11.96" duration="80.00" routeLength="410.85" waitingTime="39.00" waitingCount="1" stopTime="0.00" timeLoss="48.21" rerouteNo="0" devices="tripinfo_Prati_Capraia_10_0" vType="passenger2b" speedFactor="0.94" vaporized=""/>
    <tripinfo id="Prati_Capraia_10_1" depart="4.00" departLane="3[0]_0" departPos="0.00" departSpeed="0.00" departDelay="0.00" arrival="85.00" arrivalLane="10_0" arrivalPos="226.64" arrivalSpeed="10.98" duration="81.00" routeLength="410.85" waitingTime="34.00" waitingCount="1" stopTime="0.00" timeLoss="44.01" rerouteNo="0" devices="tripinfo_Prati_Capraia_10_1" vType="passenger5" speedFactor="0.80" vaporized=""/>
    <tripinfo id="Pertini_20_10" depart="21.00" departLane="63[0]_2" departPos="0.00" departSpeed="0.00" departDelay="0.00" arrival="86.00" arrivalLane="4[1][1][1]_1" arrivalPos="172.70" arrivalSpeed="14.61" duration="65.00" routeLength="889.67" waitingTime="0.00" waitingCount="0" stopTime="0.00" timeLoss="7.19" rerouteNo="0" devices="tripinfo_Pertini_20_10" vType="passenger1" speedFactor="1.12" vaporized=""/>
    <tripinfo id="Prati_Capraia_10_7" depart="34.00" departLane="3[0]_0" departPos="0.00" departSpeed="0.00" departDelay="0.00" arrival="87.00" arrivalLane="10_0" arrivalPos="226.64" arrivalSpeed="13.48" duration="53.00" routeLength="410.85" waitingTime="12.00" waitingCount="1" stopTime="0.00" timeLoss="23.29" rerouteNo="0" devices="tripinfo_Prati_Capraia_10_7" vType="passenger3" speedFactor="1.02" vaporized=""/>
    <tripinfo id="Certosa_9_0" depart="0.00" departLane="22[0]_1" departPos="0.00" departSpeed="0.00" departDelay="0.00" arrival="91.00" arrivalLane="2[1][1][1]b_2" arrivalPos="323.28" arrivalSpeed="14.24" duration="91.00" routeLength="620.07" waitingTime="38.00" waitingCount="1" stopTime="0.00" timeLoss="48.95" rerouteNo="0" devices="tripinfo_Certosa_9_0" vType="passenger1" speedFactor="1.08" vaporized=""/>
    <tripinfo id="Pertini_20_11" depart="23.00" departLane="63[0]_1" departPos="0.00" departSpeed="0.00" departDelay="0.00" arrival="92.00" arrivalLane="4[1][1][1]_1" arrivalPos="172.70" arrivalSpeed="14.93" duration="69.00" routeLength="889.67" waitingTime="0.00" waitingCount="0" stopTime="0.00" timeLoss="9.73" rerouteNo="0" devices="tripinfo_Pertini_20_11" vType="passenger1" speedFactor="1.09" vaporized=""/>
    <tripinfo id="Pertini_20_9" depart="19.00" departLane="63[0]_1" departPos="0.00" departSpeed="0.00" departDelay="0.00" arrival="93.00" arrivalLane="4[1][1][1]_0" arrivalPos="172.70" arrivalSpeed="12.08" duration="74.00" routeLength="889.67" waitingTime="0.00" waitingCount="0" stopTime="0.00" timeLoss="6.49" rerouteNo="0" devices="tripinfo_Pertini_20_9" vType="passenger1" speedFactor="0.96" vaporized=""/>
    <tripinfo id="Pertini_20_12" depart="25.00" departLane="63[0]_2" departPos="0.00" departSpeed="0.00" departDelay="0.00" arrival="95.00" arrivalLane="4[1][1][1]_0" arrivalPos="172.70" arrivalSpeed="13.49" duration="70.00" routeLength="889.67" waitingTime="0.00" waitingCount="0" stopTime="0.00" timeLoss="6.19" rerouteNo="0" devices="tripinfo_Pertini_20_12" vType="passenger1" speedFactor="1.01" vaporized=""/>
    <tripinfo id="Pertini_20_14" depart="30.00" departLane="63[0]_1" departPos="0.00" departSpeed="0.00" departDelay="0.00" arrival="97.00" arrivalLane="4[1][1][1]_1" arrivalPos="172.70" arrivalSpeed="14.15" duration="67.00" routeLength="889.67" waitingTime="0.00" waitingCount="0" stopTime="0.00" timeLoss="6.48" rerouteNo="0" devices="tripinfo_Pertini_20_14" vType="passenger1" speedFactor="1.06" vaporized=""/>
    <tripinfo id="Prati_Capraia_100_3" depart="14.00" departLane="3[0]_0" departPos="0.00" departSpeed="0.00" departDelay="0.00" arrival="98.00" arrivalLane="3[1]b_0" arrivalPos="241.22" arrivalSpeed="14.43" duration="84.00" routeLength="624.73" waitingTime="30.00" waitingCount="1" stopTime="0.00" timeLoss="40.83" rerouteNo="0" devices="tripinfo_Prati_Capraia_100_3" vType="passenger2a" speedFactor="1.06" vaporized=""/>
    <tripinfo id="Prati_Capraia_100_9" depart="43.00" departLane="3[0]_0" departPos="0.00" departSpeed="0.00" departDelay="0.00" arrival="99.00" arrivalLane="3[1]b_1" arrivalPos="241.22" arrivalSpeed="15.86" duration="56.00" routeLength="624.73" waitingTime="5.00" waitingCount="1" stopTime="0.00" timeLoss="18.38" rerouteNo="0" devices="tripinfo_Prati_Capraia_100_9" vType="passenger2a" speedFactor="1.21" vaporized=""/>
    <tripinfo id="Pertini_20_15" depart="32.00" departLane="63[0]_2" departPos="0.00" departSpeed="0.00" departDelay="0.00" arrival="100.00" arrivalLane="4[1][1][1]_0" arrivalPos="172.70" arrivalSpeed="13.44" duration="68.00" routeLength="889.67" waitingTime="0.00" waitingCount="0" stopTime="0.00" timeLoss="6.02" rerouteNo="0" devices="tripinfo_Pertini_20_15" vType="passenger1" speedFactor="1.03" vaporized=""/>
    <tripinfo id="Gandhi_80_11" depart="17.00" departLane="1[0]_0" departPos="0.00" departSpeed="0.00" departDelay="0.00" arrival="104.00" arrivalLane="21_0" arrivalPos="103.70" arrivalSpeed="13.61" duration="87.00" routeLength="515.76" waitingTime="39.00" waitingCount="1" stopTime="0.00" timeLoss="49.12" rerouteNo="0" devices="tripinfo_Gandhi_80_11" vType="passenger1" speedFactor="1.00" vaporized=""/>
    <tripinfo id="Prati_Capraia_100_4" depart="19.00" departLane="3[0]_1" departPos="0.00" departSpeed="0.00" departDelay="0.00" arrival="105.00" arrivalLane="3[1]b_0" arrivalPos="241.22" arrivalSpeed="12.08" duration="86.00" routeLength="624.73" waitingTime="26.00" waitingCount="1" stopTime="0.00" timeLoss="35.62" rerouteNo="0" devices="tripinfo_Prati_Capraia_100_4" vType="passenger2a" speedFactor="0.91" vaporized=""/>
    <tripinfo id="Pertini_20_17" depart="36.00" departLane="63[0]_2" departPos="0.00" departSpeed="0.00" departDelay="0.00" arrival="108.00" arrivalLane="4[1][1][1]_0" arrivalPos="172.70" arrivalSpeed="13.40" duration="72.00" routeLength="889.67" waitingTime="0.00" waitingCount="0" stopTime="0.00" timeLoss="6.73" rerouteNo="0" devices="tripinfo_Pertini_20_17" vType="passenger1" speedFactor="0.99" vaporized=""/>
    <tripinfo id="Prati_Capraia_100_11" depart="53.00" departLane="3[0]_0" departPos="0.00" departSpeed="0.00" departDelay="0.00" arrival="109.00" arrivalLane="3[1]b_0" arrivalPos="241.22" arrivalSpeed="12.22" duration="56.00" routeLength="624.73" waitingTime="0.00" waitingCount="0" stopTime="0.00" timeLoss="6.95" rerouteNo="0" devices="tripinfo_Prati_Capraia_100_11" vType="passenger1" speedFactor="0.92" vaporized=""/>
    <tripinfo id="Prati_Capraia_100_5" depart="24.00" departLane="3[0]_0" departPos="0.00" departSpeed="0.00" departDelay="0.00" arrival="110.00" arrivalLane="3[1]b_1" arrivalPos="241.22" arrivalSpeed="12.33" duration="86.00" routeLength="624.73" waitingTime="25.00" waitingCount="2" stopTime="0.00" timeLoss="39.74" rerouteNo="0" devices="tripinfo_Prati_Capraia_100_5" vType="passenger2b" speedFactor="0.98" vaporized=""/>
    <tripinfo id="Prati_Capraia_100_2" depart="9.00" departLane="3[0]_1" departPos="0.00" departSpeed="0.00" departDelay="0.00" arrival="112.00" arrivalLane="3[1]b_0" arrivalPos="241.22" arrivalSpeed="13.42" duration="103.00" routeLength="624.73" waitingTime="43.00" waitingCount="2" stopTime="0.00" timeLoss="58.63" rerouteNo="0" devices="tripinfo_Prati_Capraia_100_2" vType="passenger5" speedFactor="1.02" vaporized=""/>
    <tripinfo id="Saffi_30_4" depart="11.00" departLane="12_0" departPos="0.00" departSpeed="0.00" departDelay="0.00" arrival="114.00" arrivalLane="70_0" arrivalPos="61.95" arrivalSpeed="13.88" duration="103.00" routeLength="1146.38" waitingTime="8.00" waitingCount="1" stopTime="0.00" timeLoss="21.95" rerouteNo="0" devices="tripinfo_Saffi_30_4" vType="passenger1" speedFactor="1.03" vaporized=""/>
    <tripinfo id="Pertini_20_16" depart="34.00" departLane="63[0]_1" departPos="0.00" departSpeed="0.00" departDelay="0.00" arrival="115.00" arrivalLane="4[1][1][1]_0" arrivalPos="172.70" arrivalSpeed="11.39" duration="81.00" routeLength="889.67" waitingTime="0.00" waitingCount="0" stopTime="0.00" timeLoss="6.96" rerouteNo="0" devices="tripinfo_Pertini_20_16" vType="passenger2a" speedFactor="0.87" vaporized=""/>
    <tripinfo id="Prati_Capraia_100_13" depart="63.00" departLane="3[0]_0" departPos="0.00" departSpeed="0.00" departDelay="0.00" arrival="116.00" arrivalLane="3[1]b_1" arrivalPos="241.22" arrivalSpeed="14.11" duration="53.00" routeLength="624.73" waitingTime="0.00" waitingCount="0" stopTime="0.00" timeLoss="8.68" rerouteNo="0" devices="tripinfo_Prati_Capraia_100_13" vType="passenger2b" speedFactor="1.03" vaporized=""/>
    <tripinfo id="Pertini_20_22" depart="47.00" departLane="63[0]_2" departPos="0.00" departSpeed="0.00" departDelay="0.00" arrival="117.00" arrivalLane="4[1][1][1]_0" arrivalPos="172.70" arrivalSpeed="16.09" duration="70.00" routeLength="889.67" waitingTime="1.00" waitingCount="1" stopTime="0.00" timeLoss="15.00" rerouteNo="0" devices="tripinfo_Pertini_20_22" vType="passenger1" speedFactor="1.18" vaporized=""/>
    <tripinfo id="Pertini_20_21" depart="45.00" departLane="63[0]_1" departPos="0.00" departSpeed="0.00" departDelay="0.00" arrival="119.00" arrivalLane="4[1][1][1]_0" arrivalPos="172.70" arrivalSpeed="13.56" duration="74.00" routeLength="889.67" waitingTime="0.00" waitingCount="0" stopTime="0.00" timeLoss="11.72" rerouteNo="0" devices="tripinfo_Pertini_20_21" vType="passenger4" speedFactor="1.04" vaporized=""/>
    <tripinfo id="Prati_Capraia_100_10" depart="48.00" departLane="3[0]_1" departPos="0.00" departSpeed="0.00" departDelay="0.00" arrival="119.00" arrivalLane="3[1]b_0" arrivalPos="241.22" arrivalSpeed="11.48" duration="71.00" routeLength="624.73" waitingTime="1.00" waitingCount="1" stopTime="0.00" timeLoss="19.67" rerouteNo="0" devices="tripinfo_Prati_Capraia_100_10" vType="passenger1" speedFactor="0.88" vaporized=""/>
    <tripinfo id="Prati_Capraia_100_14" depart="68.00" departLane="3[0]_1" departPos="0.00" departSpeed="0.00" departDelay="0.00" arrival="119.00" arrivalLane="3[1]b_1" arrivalPos="241.22" arrivalSpeed="13.11" duration="51.00" routeLength="624.73" waitingTime="0.00" waitingCount="0" stopTime="0.00" timeLoss="5.68" rerouteNo="0" devices="tripinfo_Prati_Capraia_100_14" vType="passenger4" speedFactor="1.00" vaporized=""/>
    <tripinfo id="Sabotino_9_0" depart="0.00" departLane="41_0" departPos="0.00" departSpeed="0.00" departDelay="0.00" arrival="120.00" arrivalLane="2[1][1][1]b_0" arrivalPos="323.28" arrivalSpeed="13.84" duration="120.00" routeLength="1125.60" waitingTime="26.00" waitingCount="1" stopTime="0.00" timeLoss="39.36" rerouteNo="0" devices="tripinfo_Sabotino_9_0" vType="passenger1" speedFactor="1.02" vaporized=""/>
    <tripinfo id="Gandhi_80_45" depart="70.00" departLane="1[0]_0" departPos="0.00" departSpeed="0.00" departDelay="0.00" arrival="121.00" arrivalLane="21_0" arrivalPos="103.70" arrivalSpeed="11.42" duration="51.00" routeLength="515.76" waitingTime="0.00" waitingCount="0" stopTime="0.00" timeLoss="9.99" rerouteNo="0" devices="tripinfo_Gandhi_80_45" vType="passenger2a" speedFactor="0.92" vaporized=""/>
    <tripinfo id="Prati_Capraia_100_8" depart="38.00" departLane="3[0]_1" departPos="0.00" departSpeed="0.00" departDelay="0.00" arrival="122.00" arrivalLane="3[1]b_1" arrivalPos="241.22" arrivalSpeed="15.24" duration="84.00" routeLength="624.73" waitingTime="18.00" waitingCount="3" stopTime="0.00" timeLoss="43.26" rerouteNo="0" devices="tripinfo_Prati_Capraia_100_8" vType="passenger2a" speedFactor="1.12" vaporized=""/>
    <tripinfo id="Sabotino_9_2" depart="18.00" departLane="41_0" departPos="0.00" departSpeed="0.00" departDelay="0.00" arrival="123.00" arrivalLane="2[1][1][1]b_0" arrivalPos="323.28" arrivalSpeed="13.43" duration="105.00" routeLength="1125.60" waitingTime="11.00" waitingCount="1" stopTime="0.00" timeLoss="23.34" rerouteNo="0" devices="tripinfo_Sabotino_9_2" vType="passenger5" speedFactor="1.00" vaporized=""/>
    <tripinfo id="Sabotino_9_3" depart="27.00" departLane="41_0" departPos="0.00" departSpeed="0.00" departDelay="0.00" arrival="123.00" arrivalLane="2[1][1][1]b_2" arrivalPos="323.28" arrivalSpeed="14.01" duration="96.00" routeLength="1125.60" waitingTime="2.00" waitingCount="1" stopTime="0.00" timeLoss="18.59" rerouteNo="0" devices="tripinfo_Sabotino_9_3" vType="passenger1" speedFactor="1.06" vaporized=""/>
    <tripinfo id="Prati_Capraia_100_12" depart="58.00" departLane="3[0]_1" departPos="0.00" departSpeed="0.00" departDelay="0.00" arrival="123.00" arrivalLane="3[1]b_0" arrivalPos="241.22" arrivalSpeed="13.44" duration="65.00" routeLength="624.73" waitingTime="2.00" waitingCount="1" stopTime="0.00" timeLoss="18.50" rerouteNo="0" devices="tripinfo_Prati_Capraia_100_12" vType="passenger3" speedFactor="0.97" vaporized=""/>
    <tripinfo id="Pertini_20_19" depart="40.00" departLane="63[0]_2" departPos="0.00" departSpeed="0.00" departDelay="0.00" arrival="124.00" arrivalLane="4[1][1][1]_0" arrivalPos="172.70" arrivalSpeed="10.78" duration="84.00" routeLength="889.67" waitingTime="0.00" waitingCount="0" stopTime="0.00" timeLoss="7.09" rerouteNo="0" devices="tripinfo_Pertini_20_19" vType="passenger3" speedFactor="0.84" vaporized=""/>
    <tripinfo id="Prati_Capraia_10_19" depart="92.00" departLane="3[0]_0" departPos="0.00" departSpeed="0.00" departDelay="0.00" arrival="125.00" arrivalLane="10_0" arrivalPos="226.64" arrivalSpeed="14.06" duration="33.00" routeLength="410.85" waitingTime="0.00" waitingCount="0" stopTime="0.00" timeLoss="4.27" rerouteNo="0" devices="tripinfo_Prati_Capraia_10_19" vType="passenger3" speedFactor="1.05" vaporized=""/>
    <tripinfo id="Sabotino_9_1" depart="9.00" departLane="41_0" departPos="0.00" departSpeed="0.00" departDelay="0.00" arrival="126.00" arrivalLane="2[1][1][1]b_0" arrivalPos="323.28" arrivalSpeed="12.78" duration="117.00" routeLength="1125.60" waitingTime="17.00" waitingCount="1" stopTime="0.00" timeLoss="30.37" rerouteNo="0" devices="tripinfo_Sabotino_9_1" vType="passenger2a" speedFactor="0.94" vaporized=""/>
    <tripinfo id="Pertini_20_25" depart="53.00" departLane="63[0]_1" departPos="0.00" departSpeed="0.00" departDelay="0.00" arrival="126.00" arrivalLane="4[1][1][1]_0" arrivalPos="172.70" arrivalSpeed="13.00" duration="73.00" routeLength="889.67" waitingTime="0.00" waitingCount="0" stopTime="0.00" timeLoss="9.04" rerouteNo="0" devices="tripinfo_Pertini_20_25" vType="passenger1" speedFactor="1.01" vaporized=""/>
    <tripinfo id="Pertini_20_27" depart="58.00" departLane="63[0]_1" departPos="0.00" departSpeed="0.00" departDelay="0.00" arrival="126.00" arrivalLane="4[1][1][1]_1" arrivalPos="172.70" arrivalSpeed="16.38" duration="68.00" routeLength="889.67" waitingTime="0.00" waitingCount="0" stopTime="0.00" timeLoss="13.13" rerouteNo="0" devices="tripinfo_Pertini_20_27" vType="passenger1" speedFactor="1.18" vaporized=""/>
    <tripinfo id="Sabotino_9_4" depart="36.00" departLane="41_0" departPos="0.00" departSpeed="0.00" departDelay="0.00" arrival="128.00" arrivalLane="2[1][1][1]b_0" arrivalPos="323.28" arrivalSpeed="13.47" duration="92.00" routeLength="1125.60" waitingTime="0.00" waitingCount="0" stopTime="0.00" timeLoss="8.66" rerouteNo="0" devices="tripinfo_Sabotino_9_4" vType="passenger4" speedFactor="0.98" vaporized=""/>
    <tripinfo id="Pertini_20_18" depart="38.00" departLane="63[0]_1" departPos="0.00" departSpeed="0.00" departDelay="0.00" arrival="128.00" arrivalLane="4[1][1][1]_0" arrivalPos="172.70" arrivalSpeed="12.28" duration="90.00" routeLength="889.67" waitingTime="6.00" waitingCount="1" stopTime="0.00" timeLoss="20.36" rerouteNo="0" devices="tripinfo_Pertini_20_18" vType="passenger3" speedFactor="0.93" vaporized=""/>
    <tripinfo id="Pertini_10_20" depart="43.00" departLane="63[0]_2" departPos="0.00" departSpeed="0.00" departDelay="0.00" arrival="128.00" arrivalLane="10_0" arrivalPos="226.64" arrivalSpeed="15.16" duration="85.00" routeLength="944.54" waitingTime="13.00" waitingCount="1" stopTime="0.00" timeLoss="24.03" rerouteNo="0" devices="tripinfo_Pertini_10_20" vType="passenger3" speedFactor="1.13" vaporized=""/>
    <tripinfo id="Pertini_20_26" depart="55.00" departLane="63[0]_2" departPos="0.00" departSpeed="0.00" departDelay="0.00" arrival="129.00" arrivalLane="4[1][1][1]_0" arrivalPos="172.70" arrivalSpeed="12.58" duration="74.00" routeLength="889.67" waitingTime="0.00" waitingCount="0" stopTime="0.00" timeLoss="7.72" rerouteNo="0" devices="tripinfo_Pertini_20_26" vType="passenger5" speedFactor="0.97" vaporized=""/>
    <tripinfo id="Pertini_20_28" depart="60.00" departLane="63[0]_2" departPos="0.00" departSpeed="0.00" departDelay="0.00" arrival="129.00" arrivalLane="4[1][1][1]_1" arrivalPos="172.70" arrivalSpeed="13.53" duration="69.00" routeLength="889.67" waitingTime="0.00" waitingCount="0" stopTime="0.00" timeLoss="8.19" rerouteNo="0" devices="tripinfo_Pertini_20_28" vType="passenger1" speedFactor="1.07" vaporized=""/>
    <tripinfo id="Prati_Capraia_100_18" depart="87.00" departLane="3[0]_0" departPos="0.00" departSpeed="0.00" departDelay="0.00" arrival="130.00" arrivalLane="3[1]b_1" arrivalPos="241.22" arrivalSpeed="15.80" duration="43.00" routeLength="624.73" waitingTime="0.00" waitingCount="0" stopTime="0.00" timeLoss="5.74" rerouteNo="0" devices="tripinfo_Prati_Capraia_100_18" vType="passenger1" speedFactor="1.21" vaporized=""/>
    <tripinfo id="Prati_Capraia_100_16" depart="77.00" departLane="3[0]_0" departPos="0.00" departSpeed="0.00" departDelay="0.00" arrival="131.00" arrivalLane="3[1]b_0" arrivalPos="241.22" arrivalSpeed="12.34" duration="54.00" routeLength="624.73" waitingTime="0.00" waitingCount="0" stopTime="0.00" timeLoss="5.67" rerouteNo="0" devices="tripinfo_Prati_Capraia_100_16" vType="passenger1" speedFactor="0.93" vaporized=""/>
    <tripinfo id="Prati_Capraia_100_17" depart="82.00" departLane="3[0]_1" departPos="0.00" departSpeed="0.00" departDelay="0.00" arrival="135.00" arrivalLane="3[1]b_0" arrivalPos="241.22" arrivalSpeed="11.84" duration="53.00" routeLength="624.73" waitingTime="0.00" waitingCount="0" stopTime="0.00" timeLoss="4.93" rerouteNo="0" devices="tripinfo_Prati_Capraia_100_17" vType="passenger1" speedFactor="0.94" vaporized=""/>
    <tripinfo id="Sabotino_9_5" depart="45.00" departLane="41_0" departPos="0.00" departSpeed="0.00" departDelay="0.00" arrival="139.00" arrivalLane="2[1][1][1]b_0" arrivalPos="323.28" arrivalSpeed="12.74" duration="94.00" routeLength="1125.60" waitingTime="0.00" waitingCount="0" stopTime="0.00" timeLoss="7.31" rerouteNo="0" devices="tripinfo_Sabotino_9_5" vType="passenger1" speedFactor="0.94" vaporized=""/>
    <tripinfo id="Montefiorino_60_7" depart="28.00" departLane="43_0" departPos="0.00" departSpeed="0.00" departDelay="0.00" arrival="142.00" arrivalLane="40[1]_0" arrivalPos="498.82" arrivalSpeed="12.41" duration="114.00" routeLength="1022.94" waitingTime="20.00" waitingCount="1" stopTime="0.00" timeLoss="31.85" rerouteNo="0" devices="tripinfo_Montefiorino_60_7" vType="passenger1" speedFactor="0.91" vaporized=""/>
    <tripinfo id="Borgo_20_3" depart="18.00" departLane="6_1" departPos="0.00" departSpeed="0.00" departDelay="0.00" arrival="146.00" arrivalLane="4[1][1][1]_1" arrivalPos="172.70" arrivalSpeed="13.61" duration="128.00" routeLength="552.91" waitingTime="75.00" waitingCount="1" stopTime="0.00" timeLoss="87.24" rerouteNo="0" devices="tripinfo_Borgo_20_3" vType="passenger1" speedFactor="1.00" vaporized=""/>
    <tripinfo id="Borgo_20_4" depart="24.00" departLane="6_1" departPos="0.00" departSpeed="0.00" departDelay="0.00" arrival="149.00" arrivalLane="4[1][1][1]_1" arrivalPos="172.70" arrivalSpeed="11.80" duration="125.00" routeLength="552.91" waitingTime="69.00" waitingCount="1" stopTime="0.00" timeLoss="80.48" rerouteNo="0" devices="tripinfo_Borgo_20_4" vType="passenger2b" speedFactor="0.90" vaporized=""/>
    <tripinfo id="Borgo_20_6" depart="36.00" departLane="6_1" departPos="0.00" departSpeed="0.00" departDelay="0.00" arrival="151.00" arrivalLane="4[1][1][1]_1" arrivalPos="172.70" arrivalSpeed="15.18" duration="115.00" routeLength="552.91" waitingTime="63.00" waitingCount="1" stopTime="0.00" timeLoss="80.40" rerouteNo="0" devices="tripinfo_Borgo_20_6" vType="passenger4" speedFactor="1.18" vaporized=""/>
    <tripinfo id="Nigrisoli_50_6" depart="37.00" departLane="65_0" departPos="0.00" departSpeed="0.00" departDelay="0.00" arrival="151.00" arrivalLane="35[1][1][1][1]_0" arrivalPos="260.17" arrivalSpeed="12.82" duration="114.00" routeLength="1162.39" waitingTime="17.00" waitingCount="1" stopTime="0.00" timeLoss="30.24" rerouteNo="0" devices="tripinfo_Nigrisoli_50_6" vType="ignoring1" speedFactor="1.00" vaporized=""/>
    <tripinfo id="Borgo_20_7" depart="42.00" departLane="6_1" departPos="0.00" departSpeed="0.00" departDelay="0.00" arrival="152.00" arrivalLane="4[1][1][1]_1" arrivalPos="172.70" arrivalSpeed="13.85" duration="110.00" routeLength="552.91" waitingTime="58.00" waitingCount="1" stopTime="0.00" timeLoss="70.59" rerouteNo="0" devices="tripinfo_Borgo_20_7" vType="passenger1" speedFactor="1.01" vaporized=""/>
    <tripinfo id="Borgo_20_9" depart="54.00" departLane="6_1" departPos="0.00" departSpeed="0.00" departDelay="0.00" arrival="154.00" arrivalLane="4[1][1][1]_1" arrivalPos="172.70" arrivalSpeed="12.99" duration="100.00" routeLength="552.91" waitingTime="48.00" waitingCount="1" stopTime="0.00" timeLoss="60.51" rerouteNo="0" devices="tripinfo_Borgo_20_9" vType="passenger4" speedFactor="1.01" vaporized=""/>
    <tripinfo id="Borgo_20_13" depart="79.00" departLane="6_1" departPos="0.00" departSpeed="0.00" departDelay="0.00" arrival="159.00" arrivalLane="4[1][1][1]_1" arrivalPos="172.70" arrivalSpeed="12.13" duration="80.00" routeLength="552.91" waitingTime="28.00" waitingCount="1" stopTime="0.00" timeLoss="37.96" rerouteNo="0" devices="tripinfo_Borgo_20_13" vType="passenger2a" speedFactor="0.96" vaporized=""/>
    <tripinfo id="Borgo_100_2" depart="12.00" departLane="6_0" departPos="0.00" departSpeed="0.00" departDelay="0.00" arrival="160.00" arrivalLane="3[1]b_1" arrivalPos="241.22" arrivalSpeed="14.49" duration="148.00" routeLength="798.33" waitingTime="83.00" waitingCount="1" stopTime="0.00" timeLoss="94.06" rerouteNo="0" devices="tripinfo_Borgo_100_2" vType="passenger2a" speedFactor="1.07" vaporized=""/>
    <tripinfo id="Borgo_20_16" depart="97.00" departLane="6_1" departPos="0.00" departSpeed="0.00" departDelay="0.00" arrival="160.00" arrivalLane="4[1][1][1]_1" arrivalPos="172.70" arrivalSpeed="15.12" duration="63.00" routeLength="552.91" waitingTime="14.00" waitingCount="1" stopTime="0.00" timeLoss="26.95" rerouteNo="0" devices="tripinfo_Borgo_20_16" vType="passenger2b" speedFactor="1.11" vaporized=""/>
    <tripinfo id="Borgo_100_0" depart="0.00" departLane="6_0" departPos="0.00" departSpeed="0.00" departDelay="0.00" arrival="161.00" arrivalLane="3[1]b_0" arrivalPos="241.22" arrivalSpeed="12.36" duration="161.00" routeLength="798.33" waitingTime="90.00" waitingCount="1" stopTime="0.00" timeLoss="101.69" rerouteNo="0" devices="tripinfo_Borgo_100_0" vType="passenger4" speedFactor="0.98" vaporized=""/>
    <tripinfo id="Borgo_100_11" depart="66.00" departLane="6_0" departPos="0.00" departSpeed="0.00" departDelay="0.00" arrival="162.00" arrivalLane="3[1]b_1" arrivalPos="241.22" arrivalSpeed="16.20" duration="96.00" routeLength="798.33" waitingTime="32.00" waitingCount="1" stopTime="0.00" timeLoss="46.30" rerouteNo="0" devices="tripinfo_Borgo_100_11" vType="passenger1" speedFactor="1.17" vaporized=""/>
    <tripinfo id="Borgo_100_8" depart="48.00" departLane="6_0" departPos="0.00" departSpeed="0.00" departDelay="0.00" arrival="164.00" arrivalLane="3[1]b_0" arrivalPos="241.22" arrivalSpeed="13.15" duration="116.00" routeLength="798.33" waitingTime="44.00" waitingCount="1" stopTime="0.00" timeLoss="58.40" rerouteNo="0" devices="tripinfo_Borgo_100_8" vType="passenger4" speedFactor="1.01" vaporized=""/>
    <tripinfo id="Montefiorino_90_1" depart="4.00" departLane="43_0" departPos="0.00" departSpeed="0.00" departDelay="0.00" arrival="165.00" arrivalLane="2[1][1][1]b_0" arrivalPos="323.28" arrivalSpeed="15.06" duration="161.00" routeLength="1203.71" waitingTime="67.00" waitingCount="1" stopTime="0.00" timeLoss="80.95" rerouteNo="0" devices="tripinfo_Montefiorino_90_1" vType="passenger1" speedFactor="1.10" vaporized=""/>
    <tripinfo id="Pertini_102_24" depart="56.00" departLane="13[0]_0" departPos="0.00" departSpeed="0.00" departDelay="5.00" arrival="165.00" arrivalLane="29[0]_0" arrivalPos="132.42" arrivalSpeed="12.50" duration="109.00" routeLength="823.82" waitingTime="26.00" waitingCount="2" stopTime="0.00" timeLoss="48.27" rerouteNo="0" devices="tripinfo_Pertini_102_24" vType="passenger2b" speedFactor="0.98" vaporized=""/>
    <tripinfo id="Borgo_100_12" depart="72.00" departLane="6_0" departPos="0.00" departSpeed="0.00" departDelay="0.00" arrival="166.00" arrivalLane="3[1]b_0" arrivalPos="241.22" arrivalSpeed="13.71" duration="94.00" routeLength="798.33" waitingTime="24.00" waitingCount="1" stopTime="0.00" timeLoss="38.50" rerouteNo="0" devices="tripinfo_Borgo_100_12" vType="passenger5" speedFactor="1.04" vaporized=""/>
    <tripinfo id="Saffi_20_5" depart="14.00" departLane="12_0" departPos="0.00" departSpeed="0.00" departDelay="0.00" arrival="167.00" arrivalLane="4[1][1][1]_0" arrivalPos="172.70" arrivalSpeed="14.79" duration="153.00" routeLength="1786.43" waitingTime="11.00" waitingCount="2" stopTime="0.00" timeLoss="42.32" rerouteNo="0" devices="tripinfo_Saffi_20_5" vType="passenger2a" speedFactor="1.17" vaporized=""/>