<?xml version="1.0" encoding="UTF-8"?>

<!-- generated on 2025-05-27 23:32:08 by Eclipse SUMO GUI Version 1.23.1
<sumoConfiguration xmlns:xsi="http://www.w3.org/2001/XMLSchema-instance" xsi:noNamespaceSchemaLocation="http://sumo.dlr.de/xsd/sumoConfiguration.xsd">

    <input>
        <net-file value="C:\Users\trose\Workspace\Fellowship &apos;25 Personal\2025-Fellowship-Personal\SUMO\Existing Sims with Focus on Realistic Demands\RiLSA_example2\rilsa2.net.xml"/>
        <route-files value="C:\Users\trose\Workspace\Fellowship &apos;25 Personal\2025-Fellowship-Personal\SUMO\Existing Sims with Focus on Realistic Demands\RiLSA_example2\genroutes.rou.xml"/>
        <additional-files value="C:\Users\trose\Workspace\Fellowship &apos;25 Personal\2025-Fellowship-Personal\SUMO\Existing Sims with Focus on Realistic Demands\RiLSA_example2\vtypes.add.xml,C:\Users\trose\Workspace\Fellowship &apos;25 Personal\2025-Fellowship-Personal\SUMO\Existing Sims with Focus on Realistic Demands\RiLSA_example2\rilsa2_tls.add.xml"/>
    </input>

    <output>
        <tripinfo-output value="C:\Users\trose\Workspace\Fellowship &apos;25 Personal\2025-Fellowship-Personal\SUMO\Existing Sims with Focus on Realistic Demands\RiLSA_example2\tripinfos.xml"/>
    </output>

    <report>
        <log value="C:\Users\trose\Workspace\Fellowship &apos;25 Personal\2025-Fellowship-Personal\SUMO\Existing Sims with Focus on Realistic Demands\RiLSA_example2\sumo_log.txt"/>
    </report>

</sumoConfiguration>
-->

<tripinfos xmlns:xsi="http://www.w3.org/2001/XMLSchema-instance" xsi:noNamespaceSchemaLocation="http://sumo.dlr.de/xsd/tripinfo_file.xsd">
    <tripinfo id="em2mwPKW.0" depart="0.00" departLane="em_1" departPos="5.10" departSpeed="15.05" departDelay="0.00" arrival="69.00" arrivalLane="mw_0" arrivalPos="494.25" arrivalSpeed="13.91" duration="69.00" routeLength="994.63" waitingTime="0.00" waitingCount="0" stopTime="0.00" timeLoss="2.79" rerouteNo="0" devices="tripinfo_em2mwPKW.0" vType="PKW" speedFactor="1.08" vaporized=""/>
    <tripinfo id="em2mwLKW.0" depart="0.00" departLane="em_0" departPos="15.10" departSpeed="14.04" departDelay="0.00" arrival="74.00" arrivalLane="mw_0" arrivalPos="494.25" arrivalSpeed="13.55" duration="74.00" routeLength="984.63" waitingTime="0.00" waitingCount="0" stopTime="0.00" timeLoss="3.23" rerouteNo="0" devices="tripinfo_em2mwLKW.0" vType="LKW" speedFactor="1.01" vaporized=""/>
    <tripinfo id="wm2msLKW.0" depart="2.00" departLane="wm_0" departPos="15.10" departSpeed="12.00" departDelay="2.00" arrival="76.00" arrivalLane="ms_0" arrivalPos="490.95" arrivalSpeed="14.00" duration="74.00" routeLength="976.10" waitingTime="0.00" waitingCount="0" stopTime="0.00" timeLoss="8.88" rerouteNo="0" devices="tripinfo_wm2msLKW.0" vType="LKW" speedFactor="1.09" vaporized=""/>
    <tripinfo id="em2mwPKW.1" depart="4.00" departLane="em_0" departPos="5.10" departSpeed="14.55" departDelay="0.92" arrival="76.00" arrivalLane="mw_0" arrivalPos="494.25" arrivalSpeed="14.15" duration="72.00" routeLength="994.63" waitingTime="0.00" waitingCount="0" stopTime="0.00" timeLoss="3.40" rerouteNo="0" devices="tripinfo_em2mwPKW.1" vType="PKW" speedFactor="1.05" vaporized=""/>
    <tripinfo id="wm2meLKW.0" depart="0.00" departLane="wm_0" departPos="15.10" departSpeed="13.04" departDelay="0.00" arrival="79.00" arrivalLane="me_0" arrivalPos="490.95" arrivalSpeed="12.57" duration="79.00" routeLength="983.90" waitingTime="0.00" waitingCount="0" stopTime="0.00" timeLoss="3.40" rerouteNo="0" devices="tripinfo_wm2meLKW.0" vType="LKW" speedFactor="0.94" vaporized=""/>
    <tripinfo id="wm2msPKW.0" depart="3.00" departLane="wm_0" departPos="5.10" departSpeed="9.52" departDelay="3.00" arrival="80.00" arrivalLane="ms_0" arrivalPos="490.95" arrivalSpeed="13.90" duration="77.00" routeLength="986.10" waitingTime="0.00" waitingCount="0" stopTime="0.00" timeLoss="7.21" rerouteNo="0" devices="tripinfo_wm2msPKW.0" vType="PKW" speedFactor="1.03" vaporized=""/>
    <tripinfo id="em2msLKW.0" depart="0.00" departLane="em_2" departPos="15.10" departSpeed="14.73" departDelay="0.00" arrival="87.00" arrivalLane="ms_0" arrivalPos="490.95" arrivalSpeed="14.24" duration="87.00" routeLength="991.55" waitingTime="10.00" waitingCount="1" stopTime="0.00" timeLoss="19.31" rerouteNo="0" devices="tripinfo_em2msLKW.0" vType="LKW" speedFactor="1.06" vaporized=""/>
    <tripinfo id="wm2mePKW.0" depart="0.00" departLane="wm_1" departPos="5.10" departSpeed="11.91" departDelay="0.00" arrival="88.00" arrivalLane="me_0" arrivalPos="490.95" arrivalSpeed="10.89" duration="88.00" routeLength="993.90" waitingTime="0.00" waitingCount="0" stopTime="0.00" timeLoss="4.37" rerouteNo="0" devices="tripinfo_wm2mePKW.0" vType="PKW" speedFactor="0.86" vaporized=""/>
    <tripinfo id="sm2meLKW.0" depart="0.00" departLane="sm_0" departPos="15.10" departSpeed="14.32" departDelay="0.00" arrival="89.00" arrivalLane="me_1" arrivalPos="490.95" arrivalSpeed="13.84" duration="89.00" routeLength="972.80" waitingTime="12.00" waitingCount="1" stopTime="0.00" timeLoss="20.64" rerouteNo="0" devices="tripinfo_sm2meLKW.0" vType="LKW" speedFactor="1.03" vaporized=""/>
    <tripinfo id="sm2mePKW.1" depart="15.00" departLane="sm_0" departPos="5.10" departSpeed="14.04" departDelay="0.99" arrival="94.00" arrivalLane="me_0" arrivalPos="490.95" arrivalSpeed="13.89" duration="79.00" routeLength="982.80" waitingTime="0.00" waitingCount="0" stopTime="0.00" timeLoss="8.87" rerouteNo="0" devices="tripinfo_sm2mePKW.1" vType="PKW" speedFactor="1.01" vaporized=""/>
    <tripinfo id="em2msPKW.0" depart="1.00" departLane="em_2" departPos="5.10" departSpeed="12.20" departDelay="1.00" arrival="95.00" arrivalLane="ms_0" arrivalPos="490.95" arrivalSpeed="12.87" duration="94.00" routeLength="1001.55" waitingTime="5.00" waitingCount="1" stopTime="0.00" timeLoss="16.39" rerouteNo="0" devices="tripinfo_em2msPKW.0" vType="PKW" speedFactor="0.94" vaporized=""/>
    <tripinfo id="em2msPKW.1" depart="13.00" departLane="em_2" departPos="5.10" departSpeed="13.01" departDelay="0.76" arrival="96.00" arrivalLane="ms_0" arrivalPos="490.95" arrivalSpeed="12.54" duration="83.00" routeLength="1001.55" waitingTime="0.00" waitingCount="0" stopTime="0.00" timeLoss="5.90" rerouteNo="0" devices="tripinfo_em2msPKW.1" vType="PKW" speedFactor="0.94" vaporized=""/>
    <tripinfo id="em2msPKW.2" depart="25.00" departLane="em_2" departPos="5.10" departSpeed="16.38" departDelay="0.51" arrival="98.00" arrivalLane="ms_0" arrivalPos="490.95" arrivalSpeed="15.38" duration="73.00" routeLength="1001.55" waitingTime="0.00" waitingCount="0" stopTime="0.00" timeLoss="11.23" rerouteNo="0" devices="tripinfo_em2msPKW.2" vType="PKW" speedFactor="1.18" vaporized=""/>
    <tripinfo id="sm2mePKW.0" depart="1.00" departLane="sm_0" departPos="5.10" departSpeed="11.55" departDelay="1.00" arrival="100.00" arrivalLane="me_0" arrivalPos="490.95" arrivalSpeed="10.82" duration="99.00" routeLength="982.80" waitingTime="3.00" waitingCount="1" stopTime="0.00" timeLoss="13.13" rerouteNo="0" devices="tripinfo_sm2mePKW.0" vType="PKW" speedFactor="0.83" vaporized=""/>
    <tripinfo id="sm2mwLKW.0" depart="0.00" departLane="sm_1" departPos="15.10" departSpeed="14.54" departDelay="0.00" arrival="100.00" arrivalLane="mw_0" arrivalPos="494.25" arrivalSpeed="14.39" duration="100.00" routeLength="994.02" waitingTime="23.00" waitingCount="1" stopTime="0.00" timeLoss="31.60" rerouteNo="0" devices="tripinfo_sm2mwLKW.0" vType="LKW" speedFactor="1.05" vaporized=""/>
    <tripinfo id="sm2mePKW.2" depart="29.00" departLane="sm_0" departPos="5.10" departSpeed="14.17" departDelay="0.99" arrival="102.00" arrivalLane="me_0" arrivalPos="490.95" arrivalSpeed="13.92" duration="73.00" routeLength="982.80" waitingTime="0.00" waitingCount="0" stopTime="0.00" timeLoss="3.32" rerouteNo="0" devices="tripinfo_sm2mePKW.2" vType="PKW" speedFactor="1.02" vaporized=""/>
    <tripinfo id="sm2mwPKW.1" depart="15.00" departLane="sm_1" departPos="5.10" departSpeed="13.55" departDelay="0.66" arrival="109.00" arrivalLane="mw_0" arrivalPos="494.25" arrivalSpeed="12.76" duration="94.00" routeLength="1004.02" waitingTime="8.00" waitingCount="1" stopTime="0.00" timeLoss="19.38" rerouteNo="0" devices="tripinfo_sm2mwPKW.1" vType="PKW" speedFactor="0.97" vaporized=""/>
    <tripinfo id="sm2mwPKW.0" depart="1.00" departLane="sm_1" departPos="5.10" departSpeed="12.32" departDelay="1.00" arrival="110.00" arrivalLane="mw_0" arrivalPos="494.25" arrivalSpeed="11.78" duration="109.00" routeLength="1004.02" waitingTime="18.00" waitingCount="1" stopTime="0.00" timeLoss="27.46" rerouteNo="0" devices="tripinfo_sm2mwPKW.0" vType="PKW" speedFactor="0.89" vaporized=""/>
    <tripinfo id="sm2mwPKW.2" depart="29.00" departLane="sm_1" departPos="5.10" departSpeed="13.53" departDelay="0.32" arrival="111.00" arrivalLane="mw_1" arrivalPos="494.25" arrivalSpeed="13.06" duration="82.00" routeLength="1004.02" waitingTime="0.00" waitingCount="0" stopTime="0.00" timeLoss="6.99" rerouteNo="0" devices="tripinfo_sm2mwPKW.2" vType="PKW" speedFactor="0.97" vaporized=""/>
    <tripinfo id="em2mwPKW.4" depart="13.00" departLane="em_1" departPos="5.10" departSpeed="16.10" departDelay="0.66" arrival="119.00" arrivalLane="mw_0" arrivalPos="494.25" arrivalSpeed="15.68" duration="106.00" routeLength="994.63" waitingTime="36.00" waitingCount="1" stopTime="0.00" timeLoss="44.05" rerouteNo="0" devices="tripinfo_em2mwPKW.4" vType="PKW" speedFactor="1.16" vaporized=""/>
    <tripinfo id="wm2mePKW.1" depart="4.00" departLane="wm_1" departPos="5.10" departSpeed="15.61" departDelay="0.54" arrival="121.00" arrivalLane="me_0" arrivalPos="490.95" arrivalSpeed="15.33" duration="117.00" routeLength="993.90" waitingTime="36.00" waitingCount="1" stopTime="0.00" timeLoss="52.84" rerouteNo="0" devices="tripinfo_wm2mePKW.1" vType="PKW" speedFactor="1.12" vaporized=""/>
    <tripinfo id="em2mwPKW.8" depart="25.00" departLane="em_1" departPos="5.10" departSpeed="16.05" departDelay="0.33" arrival="121.00" arrivalLane="mw_1" arrivalPos="494.25" arrivalSpeed="15.14" duration="96.00" routeLength="994.63" waitingTime="25.00" waitingCount="1" stopTime="0.00" timeLoss="33.62" rerouteNo="0" devices="tripinfo_em2mwPKW.8" vType="PKW" speedFactor="1.15" vaporized=""/>
    <tripinfo id="em2mwPKW.9" depart="28.00" departLane="em_0" departPos="5.10" departSpeed="16.29" departDelay="0.24" arrival="123.00" arrivalLane="mw_1" arrivalPos="494.25" arrivalSpeed="15.00" duration="95.00" routeLength="994.63" waitingTime="24.00" waitingCount="1" stopTime="0.00" timeLoss="33.26" rerouteNo="0" devices="tripinfo_em2mwPKW.9" vType="PKW" speedFactor="1.17" vaporized=""/>
    <tripinfo id="em2mwPKW.2" depart="7.00" departLane="em_1" departPos="5.10" departSpeed="13.78" departDelay="0.83" arrival="125.00" arrivalLane="mw_0" arrivalPos="494.25" arrivalSpeed="13.45" duration="118.00" routeLength="994.63" waitingTime="35.00" waitingCount="1" stopTime="0.00" timeLoss="44.85" rerouteNo="0" devices="tripinfo_em2mwPKW.2" vType="PKW" speedFactor="0.99" vaporized=""/>
    <tripinfo id="wm2msPKW.1" depart="22.00" departLane="wm_0" departPos="5.10" departSpeed="15.73" departDelay="0.18" arrival="125.00" arrivalLane="ms_0" arrivalPos="490.95" arrivalSpeed="14.67" duration="103.00" routeLength="986.10" waitingTime="20.00" waitingCount="1" stopTime="0.00" timeLoss="39.69" rerouteNo="0" devices="tripinfo_wm2msPKW.1" vType="PKW" speedFactor="1.13" vaporized=""/>
    <tripinfo id="wm2mePKW.4" depart="14.00" departLane="wm_1" departPos="5.10" departSpeed="14.15" departDelay="0.17" arrival="126.00" arrivalLane="me_0" arrivalPos="490.95" arrivalSpeed="12.92" duration="112.00" routeLength="993.90" waitingTime="31.00" waitingCount="1" stopTime="0.00" timeLoss="40.97" rerouteNo="0" devices="tripinfo_wm2mePKW.4" vType="PKW" speedFactor="1.02" vaporized=""/>
    <tripinfo id="wm2mePKW.2" depart="7.00" departLane="wm_1" departPos="5.10" departSpeed="12.88" departDelay="0.08" arrival="127.00" arrivalLane="me_0" arrivalPos="490.95" arrivalSpeed="12.52" duration="120.00" routeLength="993.90" waitingTime="34.00" waitingCount="1" stopTime="0.00" timeLoss="42.61" rerouteNo="0" devices="tripinfo_wm2mePKW.2" vType="PKW" speedFactor="0.93" vaporized=""/>
    <tripinfo id="wm2mePKW.3" depart="11.00" departLane="wm_0" departPos="5.10" departSpeed="13.09" departDelay="0.63" arrival="129.00" arrivalLane="me_0" arrivalPos="490.95" arrivalSpeed="12.64" duration="118.00" routeLength="993.90" waitingTime="30.00" waitingCount="1" stopTime="0.00" timeLoss="41.57" rerouteNo="0" devices="tripinfo_wm2mePKW.3" vType="PKW" speedFactor="0.94" vaporized=""/>
    <tripinfo id="em2mwPKW.3" depart="10.00" departLane="em_0" departPos="5.10" departSpeed="12.21" departDelay="0.75" arrival="131.00" arrivalLane="mw_0" arrivalPos="494.25" arrivalSpeed="11.66" duration="121.00" routeLength="994.63" waitingTime="31.00" waitingCount="1" stopTime="0.00" timeLoss="39.22" rerouteNo="0" devices="tripinfo_em2mwPKW.3" vType="PKW" speedFactor="0.88" vaporized=""/>
    <tripinfo id="wm2mePKW.6" depart="21.00" departLane="wm_1" departPos="5.10" departSpeed="12.75" departDelay="0.25" arrival="131.00" arrivalLane="me_0" arrivalPos="490.95" arrivalSpeed="12.56" duration="110.00" routeLength="993.90" waitingTime="22.00" waitingCount="1" stopTime="0.00" timeLoss="31.95" rerouteNo="0" devices="tripinfo_wm2mePKW.6" vType="PKW" speedFactor="0.92" vaporized=""/>
    <tripinfo id="em2mwPKW.7" depart="22.00" departLane="em_0" departPos="5.10" departSpeed="13.19" departDelay="0.41" arrival="132.00" arrivalLane="mw_1" arrivalPos="494.25" arrivalSpeed="12.15" duration="110.00" routeLength="994.63" waitingTime="21.00" waitingCount="1" stopTime="0.00" timeLoss="33.98" rerouteNo="0" devices="tripinfo_em2mwPKW.7" vType="PKW" speedFactor="0.95" vaporized=""/>
    <tripinfo id="wm2mePKW.8" depart="28.00" departLane="wm_0" departPos="5.10" departSpeed="13.97" departDelay="0.34" arrival="132.00" arrivalLane="me_1" arrivalPos="490.95" arrivalSpeed="13.45" duration="104.00" routeLength="993.90" waitingTime="19.00" waitingCount="1" stopTime="0.00" timeLoss="32.05" rerouteNo="0" devices="tripinfo_wm2mePKW.8" vType="PKW" speedFactor="1.01" vaporized=""/>
    <tripinfo id="em2mwPKW.5" depart="16.00" departLane="em_0" departPos="5.10" departSpeed="12.37" departDelay="0.58" arrival="133.00" arrivalLane="mw_0" arrivalPos="494.25" arrivalSpeed="11.66" duration="117.00" routeLength="994.63" waitingTime="26.00" waitingCount="1" stopTime="0.00" timeLoss="35.98" rerouteNo="0" devices="tripinfo_em2mwPKW.5" vType="PKW" speedFactor="0.89" vaporized=""/>
    <tripinfo id="em2mwPKW.10" depart="31.00" departLane="em_1" departPos="5.10" departSpeed="16.40" departDelay="0.16" arrival="133.00" arrivalLane="mw_1" arrivalPos="494.25" arrivalSpeed="14.71" duration="102.00" routeLength="994.63" waitingTime="21.00" waitingCount="1" stopTime="0.00" timeLoss="41.22" rerouteNo="0" devices="tripinfo_em2mwPKW.10" vType="PKW" speedFactor="1.18" vaporized=""/>
    <tripinfo id="wm2mePKW.10" depart="35.00" departLane="wm_0" departPos="5.10" departSpeed="14.32" departDelay="0.42" arrival="133.00" arrivalLane="me_0" arrivalPos="490.95" arrivalSpeed="14.16" duration="98.00" routeLength="993.90" waitingTime="17.00" waitingCount="1" stopTime="0.00" timeLoss="28.13" rerouteNo="0" devices="tripinfo_wm2mePKW.10" vType="PKW" speedFactor="1.03" vaporized=""/>
    <tripinfo id="em2mwPKW.6" depart="19.00" departLane="em_1" departPos="5.10" departSpeed="12.13" departDelay="0.50" arrival="135.00" arrivalLane="mw_0" arrivalPos="494.25" arrivalSpeed="11.23" duration="116.00" routeLength="994.63" waitingTime="23.00" waitingCount="1" stopTime="0.00" timeLoss="33.53" rerouteNo="0" devices="tripinfo_em2mwPKW.6" vType="PKW" speedFactor="0.87" vaporized=""/>
    <tripinfo id="em2mwPKW.12" depart="38.00" departLane="em_1" departPos="5.10" departSpeed="14.43" departDelay="0.99" arrival="135.00" arrivalLane="mw_1" arrivalPos="494.25" arrivalSpeed="13.48" duration="97.00" routeLength="994.63" waitingTime="14.00" waitingCount="1" stopTime="0.00" timeLoss="27.61" rerouteNo="0" devices="tripinfo_em2mwPKW.12" vType="PKW" speedFactor="1.04" vaporized=""/>
    <tripinfo id="wm2mePKW.7" depart="25.00" departLane="wm_1" departPos="5.10" departSpeed="12.95" departDelay="0.79" arrival="136.00" arrivalLane="me_1" arrivalPos="490.95" arrivalSpeed="12.85" duration="111.00" routeLength="993.90" waitingTime="19.00" waitingCount="1" stopTime="0.00" timeLoss="34.05" rerouteNo="0" devices="tripinfo_wm2mePKW.7" vType="PKW" speedFactor="0.93" vaporized=""/>
    <tripinfo id="em2mwPKW.13" depart="41.00" departLane="em_0" departPos="5.10" departSpeed="15.12" departDelay="0.91" arrival="136.00" arrivalLane="mw_1" arrivalPos="494.25" arrivalSpeed="14.70" duration="95.00" routeLength="994.63" waitingTime="13.00" waitingCount="1" stopTime="0.00" timeLoss="29.21" rerouteNo="0" devices="tripinfo_em2mwPKW.13" vType="PKW" speedFactor="1.09" vaporized=""/>
    <tripinfo id="wm2mePKW.5" depart="18.00" departLane="wm_0" departPos="5.10" departSpeed="11.48" departDelay="0.71" arrival="137.00" arrivalLane="me_0" arrivalPos="490.95" arrivalSpeed="10.86" duration="119.00" routeLength="993.90" waitingTime="20.00" waitingCount="1" stopTime="0.00" timeLoss="31.49" rerouteNo="0" devices="tripinfo_wm2mePKW.5" vType="PKW" speedFactor="0.83" vaporized=""/>
    <tripinfo id="em2mwLKW.1" depart="28.00" departLane="em_1" departPos="15.10" departSpeed="13.83" departDelay="0.09" arrival="137.00" arrivalLane="mw_0" arrivalPos="494.25" arrivalSpeed="13.63" duration="109.00" routeLength="984.63" waitingTime="21.00" waitingCount="1" stopTime="0.00" timeLoss="36.86" rerouteNo="0" devices="tripinfo_em2mwLKW.1" vType="LKW" speedFactor="0.99" vaporized=""/>
    <tripinfo id="wm2mePKW.9" depart="32.00" departLane="wm_1" departPos="5.10" departSpeed="15.32" departDelay="0.88" arrival="138.00" arrivalLane="me_1" arrivalPos="490.95" arrivalSpeed="14.73" duration="106.00" routeLength="993.90" waitingTime="18.00" waitingCount="1" stopTime="0.00" timeLoss="40.55" rerouteNo="0" devices="tripinfo_wm2mePKW.9" vType="PKW" speedFactor="1.10" vaporized=""/>
    <tripinfo id="wm2meLKW.1" depart="36.00" departLane="wm_1" departPos="15.10" departSpeed="13.30" departDelay="0.71" arrival="138.00" arrivalLane="me_0" arrivalPos="490.95" arrivalSpeed="12.11" duration="102.00" routeLength="983.90" waitingTime="15.00" waitingCount="1" stopTime="0.00" timeLoss="27.68" rerouteNo="0" devices="tripinfo_wm2meLKW.1" vType="LKW" speedFactor="0.96" vaporized=""/>
    <tripinfo id="em2mwPKW.17" depart="53.00" departLane="em_0" departPos="5.10" departSpeed="15.88" departDelay="0.57" arrival="138.00" arrivalLane="mw_1" arrivalPos="494.25" arrivalSpeed="15.24" duration="85.00" routeLength="994.63" waitingTime="6.00" waitingCount="1" stopTime="0.00" timeLoss="21.94" rerouteNo="0" devices="tripinfo_em2mwPKW.17" vType="PKW" speedFactor="1.14" vaporized=""/>
    <tripinfo id="em2mwPKW.11" depart="34.00" departLane="em_0" departPos="5.10" departSpeed="12.52" departDelay="0.08" arrival="139.00" arrivalLane="mw_0" arrivalPos="494.25" arrivalSpeed="11.55" duration="105.00" routeLength="994.63" waitingTime="14.00" waitingCount="1" stopTime="0.00" timeLoss="25.31" rerouteNo="0" devices="tripinfo_em2mwPKW.11" vType="PKW" speedFactor="0.90" vaporized=""/>
    <tripinfo id="wm2mePKW.11" depart="39.00" departLane="wm_0" departPos="5.10" departSpeed="14.50" departDelay="0.96" arrival="140.00" arrivalLane="me_1" arrivalPos="490.95" arrivalSpeed="14.49" duration="101.00" routeLength="993.90" waitingTime="13.00" waitingCount="1" stopTime="0.00" timeLoss="31.59" rerouteNo="0" devices="tripinfo_wm2mePKW.11" vType="PKW" speedFactor="1.04" vaporized=""/>
    <tripinfo id="wm2mePKW.13" depart="45.00" departLane="wm_1" departPos="5.10" departSpeed="16.25" departDelay="0.05" arrival="140.00" arrivalLane="me_0" arrivalPos="490.95" arrivalSpeed="14.13" duration="95.00" routeLength="993.90" waitingTime="12.00" waitingCount="1" stopTime="0.00" timeLoss="33.81" rerouteNo="0" devices="tripinfo_wm2mePKW.13" vType="PKW" speedFactor="1.17" vaporized=""/>
    <tripinfo id="em2mwPKW.16" depart="50.00" departLane="em_1" departPos="5.10" departSpeed="13.84" departDelay="0.66" arrival="140.00" arrivalLane="mw_1" arrivalPos="494.25" arrivalSpeed="13.35" duration="90.00" routeLength="994.63" waitingTime="5.00" waitingCount="1" stopTime="0.00" timeLoss="17.58" rerouteNo="0" devices="tripinfo_em2mwPKW.16" vType="PKW" speedFactor="1.00" vaporized=""/>
    <tripinfo id="em2mwPKW.15" depart="47.00" departLane="em_0" departPos="5.10" departSpeed="14.13" departDelay="0.74" arrival="141.00" arrivalLane="mw_0" arrivalPos="494.25" arrivalSpeed="13.00" duration="94.00" routeLength="994.63" waitingTime="7.00" waitingCount="1" stopTime="0.00" timeLoss="23.04" rerouteNo="0" devices="tripinfo_em2mwPKW.15" vType="PKW" speedFactor="1.02" vaporized=""/>
    <tripinfo id="em2mwLKW.2" depart="56.00" departLane="em_0" departPos="15.10" departSpeed="15.05" departDelay="0.19" arrival="141.00" arrivalLane="mw_1" arrivalPos="494.25" arrivalSpeed="13.90" duration="85.00" routeLength="984.63" waitingTime="2.00" waitingCount="1" stopTime="0.00" timeLoss="19.50" rerouteNo="0" devices="tripinfo_em2mwLKW.2" vType="LKW" speedFactor="1.08" vaporized=""/>
    <tripinfo id="wm2mePKW.12" depart="42.00" departLane="wm_1" departPos="5.10" departSpeed="13.86" departDelay="0.50" arrival="142.00" arrivalLane="me_0" arrivalPos="490.95" arrivalSpeed="12.82" duration="100.00" routeLength="993.90" waitingTime="11.00" waitingCount="1" stopTime="0.00" timeLoss="27.86" rerouteNo="0" devices="tripinfo_wm2mePKW.12" vType="PKW" speedFactor="1.00" vaporized=""/>
    <tripinfo id="wm2msPKW.2" depart="44.00" departLane="wm_0" departPos="5.10" departSpeed="11.88" departDelay="0.36" arrival="143.00" arrivalLane="ms_0" arrivalPos="490.95" arrivalSpeed="11.15" duration="99.00" routeLength="986.10" waitingTime="4.00" waitingCount="1" stopTime="0.00" timeLoss="15.92" rerouteNo="0" devices="tripinfo_wm2msPKW.2" vType="PKW" speedFactor="0.85" vaporized=""/>
    <tripinfo id="wm2mePKW.14" depart="49.00" departLane="wm_1" departPos="5.10" departSpeed="15.23" departDelay="0.59" arrival="143.00" arrivalLane="me_1" arrivalPos="490.95" arrivalSpeed="15.02" duration="94.00" routeLength="993.90" waitingTime="8.00" waitingCount="1" stopTime="0.00" timeLoss="28.74" rerouteNo="0" devices="tripinfo_wm2mePKW.14" vType="PKW" speedFactor="1.10" vaporized=""/>
    <tripinfo id="em2mwPKW.14" depart="44.00" departLane="em_1" departPos="5.10" departSpeed="11.82" departDelay="0.82" arrival="144.00" arrivalLane="mw_0" arrivalPos="494.25" arrivalSpeed="10.94" duration="100.00" routeLength="994.63" waitingTime="5.00" waitingCount="1" stopTime="0.00" timeLoss="15.77" rerouteNo="0" devices="tripinfo_em2mwPKW.14" vType="PKW" speedFactor="0.85" vaporized=""/>
    <tripinfo id="wm2mePKW.15" depart="52.00" departLane="wm_0" departPos="5.10" departSpeed="12.49" departDelay="0.13" arrival="144.00" arrivalLane="me_0" arrivalPos="490.95" arrivalSpeed="12.05" duration="92.00" routeLength="993.90" waitingTime="0.00" waitingCount="0" stopTime="0.00" timeLoss="11.92" rerouteNo="0" devices="tripinfo_wm2mePKW.15" vType="PKW" speedFactor="0.90" vaporized=""/>
    <tripinfo id="em2mwPKW.21" depart="65.00" departLane="em_0" departPos="5.10" departSpeed="14.46" departDelay="0.24" arrival="144.00" arrivalLane="mw_1" arrivalPos="494.25" arrivalSpeed="13.28" duration="79.00" routeLength="994.63" waitingTime="0.00" waitingCount="0" stopTime="0.00" timeLoss="9.61" rerouteNo="0" devices="tripinfo_em2mwPKW.21" vType="PKW" speedFactor="1.04" vaporized=""/>
    <tripinfo id="wm2mePKW.16" depart="56.00" departLane="wm_1" departPos="5.10" departSpeed="14.23" departDelay="0.67" arrival="145.00" arrivalLane="me_1" arrivalPos="490.95" arrivalSpeed="13.65" duration="89.00" routeLength="993.90" waitingTime="3.00" waitingCount="1" stopTime="0.00" timeLoss="18.99" rerouteNo="0" devices="tripinfo_wm2mePKW.16" vType="PKW" speedFactor="1.02" vaporized=""/>
    <tripinfo id="wm2msPKW.3" depart="66.00" departLane="wm_0" departPos="5.10" departSpeed="14.21" departDelay="0.55" arrival="145.00" arrivalLane="ms_0" arrivalPos="490.95" arrivalSpeed="13.91" duration="79.00" routeLength="986.10" waitingTime="0.00" waitingCount="0" stopTime="0.00" timeLoss="8.92" rerouteNo="0" devices="tripinfo_wm2msPKW.3" vType="PKW" speedFactor="1.02" vaporized=""/>
    <tripinfo id="em2mwPKW.18" depart="56.00" departLane="em_1" departPos="5.10" departSpeed="13.48" departDelay="0.49" arrival="146.00" arrivalLane="mw_0" arrivalPos="494.25" arrivalSpeed="12.70" duration="90.00" routeLength="994.63" waitingTime="0.00" waitingCount="0" stopTime="0.00" timeLoss="15.60" rerouteNo="0" devices="tripinfo_em2mwPKW.18" vType="PKW" speedFactor="0.97" vaporized=""/>
    <tripinfo id="wm2mePKW.18" depart="63.00" departLane="wm_1" departPos="5.10" departSpeed="12.71" departDelay="0.76" arrival="146.00" arrivalLane="me_0" arrivalPos="490.95" arrivalSpeed="12.60" duration="83.00" routeLength="993.90" waitingTime="0.00" waitingCount="0" stopTime="0.00" timeLoss="4.13" rerouteNo="0" devices="tripinfo_wm2mePKW.18" vType="PKW" speedFactor="0.91" vaporized=""/>
    <tripinfo id="em2mwPKW.22" depart="68.00" departLane="em_1" departPos="5.10" departSpeed="13.52" departDelay="0.15" arrival="146.00" arrivalLane="mw_1" arrivalPos="494.25" arrivalSpeed="12.51" duration="78.00" routeLength="994.63" waitingTime="0.00" waitingCount="0" stopTime="0.00" timeLoss="4.04" rerouteNo="0" devices="tripinfo_em2mwPKW.22" vType="PKW" speedFactor="0.97" vaporized=""/>
    <tripinfo id="em2mwPKW.19" depart="59.00" departLane="em_0" departPos="5.10" departSpeed="13.72" departDelay="0.40" arrival="148.00" arrivalLane="mw_0" arrivalPos="494.25" arrivalSpeed="12.43" duration="89.00" routeLength="994.63" waitingTime="0.00" waitingCount="0" stopTime="0.00" timeLoss="15.64" rerouteNo="0" devices="tripinfo_em2mwPKW.19" vType="PKW" speedFactor="0.99" vaporized=""/>
    <tripinfo id="wm2mePKW.17" depart="59.00" departLane="wm_0" departPos="5.10" departSpeed="13.03" departDelay="0.21" arrival="148.00" arrivalLane="me_1" arrivalPos="490.95" arrivalSpeed="12.00" duration="89.00" routeLength="993.90" waitingTime="0.00" waitingCount="0" stopTime="0.00" timeLoss="12.41" rerouteNo="0" devices="tripinfo_wm2mePKW.17" vType="PKW" speedFactor="0.94" vaporized=""/>
    <tripinfo id="em2mwPKW.24" depart="75.00" departLane="em_1" departPos="5.10" departSpeed="15.11" departDelay="0.98" arrival="148.00" arrivalLane="mw_1" arrivalPos="494.25" arrivalSpeed="14.13" duration="73.00" routeLength="994.63" waitingTime="0.00" waitingCount="0" stopTime="0.00" timeLoss="6.38" rerouteNo="0" devices="tripinfo_em2mwPKW.24" vType="PKW" speedFactor="1.09" vaporized=""/>
    <tripinfo id="em2mwPKW.20" depart="62.00" departLane="em_1" departPos="5.10" departSpeed="12.60" departDelay="0.32" arrival="149.00" arrivalLane="mw_0" arrivalPos="494.25" arrivalSpeed="11.78" duration="87.00" routeLength="994.63" waitingTime="0.00" waitingCount="0" stopTime="0.00" timeLoss="7.99" rerouteNo="0" devices="tripinfo_em2mwPKW.20" vType="PKW" speedFactor="0.91" vaporized=""/>
    <tripinfo id="wm2meLKW.2" depart="71.00" departLane="wm_0" departPos="15.10" departSpeed="13.28" departDelay="0.41" arrival="149.00" arrivalLane="me_0" arrivalPos="490.95" arrivalSpeed="12.24" duration="78.00" routeLength="983.90" waitingTime="0.00" waitingCount="0" stopTime="0.00" timeLoss="3.72" rerouteNo="0" devices="tripinfo_wm2meLKW.2" vType="LKW" speedFactor="0.96" vaporized=""/>
    <tripinfo id="em2mwPKW.23" depart="71.00" departLane="em_0" departPos="5.10" departSpeed="13.69" departDelay="0.07" arrival="149.00" arrivalLane="mw_1" arrivalPos="494.25" arrivalSpeed="13.66" duration="78.00" routeLength="994.63" waitingTime="0.00" waitingCount="0" stopTime="0.00" timeLoss="5.23" rerouteNo="0" devices="tripinfo_em2mwPKW.23" vType="PKW" speedFactor="0.98" vaporized=""/>
    <tripinfo id="wm2mePKW.19" depart="66.00" departLane="wm_1" departPos="5.10" departSpeed="14.22" departDelay="0.30" arrival="150.00" arrivalLane="me_1" arrivalPos="490.95" arrivalSpeed="13.84" duration="84.00" routeLength="993.90" waitingTime="0.00" waitingCount="0" stopTime="0.00" timeLoss="13.35" rerouteNo="0" devices="tripinfo_wm2mePKW.19" vType="PKW" speedFactor="1.02" vaporized=""/>
    <tripinfo id="wm2mePKW.20" depart="70.00" departLane="wm_1" departPos="5.10" departSpeed="13.07" departDelay="0.84" arrival="151.00" arrivalLane="me_1" arrivalPos="490.95" arrivalSpeed="12.50" duration="81.00" routeLength="993.90" waitingTime="0.00" waitingCount="0" stopTime="0.00" timeLoss="4.93" rerouteNo="0" devices="tripinfo_wm2mePKW.20" vType="PKW" speedFactor="0.94" vaporized=""/>
    <tripinfo id="wm2mePKW.22" depart="77.00" departLane="wm_0" departPos="5.10" departSpeed="14.38" departDelay="0.92" arrival="152.00" arrivalLane="me_0" arrivalPos="490.95" arrivalSpeed="14.27" duration="75.00" routeLength="993.90" waitingTime="0.00" waitingCount="0" stopTime="0.00" timeLoss="4.99" rerouteNo="0" devices="tripinfo_wm2mePKW.22" vType="PKW" speedFactor="1.03" vaporized=""/>
    <tripinfo id="wm2mePKW.21" depart="73.00" departLane="wm_1" departPos="5.10" departSpeed="13.65" departDelay="0.38" arrival="153.00" arrivalLane="me_1" arrivalPos="490.95" arrivalSpeed="13.55" duration="80.00" routeLength="993.90" waitingTime="0.00" waitingCount="0" stopTime="0.00" timeLoss="6.78" rerouteNo="0" devices="tripinfo_wm2mePKW.21" vType="PKW" speedFactor="0.98" vaporized=""/>