<?xml version="1.0" encoding="UTF-8"?>

<!-- generated on 2025-05-27 23:33:14 by Eclipse SUMO GUI Version 1.23.1
<sumoConfiguration xmlns:xsi="http://www.w3.org/2001/XMLSchema-instance" xsi:noNamespaceSchemaLocation="http://sumo.dlr.de/xsd/sumoConfiguration.xsd">

    <input>
        <net-file value="C:\Users\trose\Workspace\Fellowship &apos;25 Personal\2025-Fellowship-Personal\SUMO\Existing Sims with Focus on Realistic Demands\RiLSA_example3\rilsa3.net.xml"/>
        <route-files value="C:\Users\trose\Workspace\Fellowship &apos;25 Personal\2025-Fellowship-Personal\SUMO\Existing Sims with Focus on Realistic Demands\RiLSA_example3\genroutes.rou.xml"/>
        <additional-files value="C:\Users\trose\Workspace\Fellowship &apos;25 Personal\2025-Fellowship-Personal\SUMO\Existing Sims with Focus on Realistic Demands\RiLSA_example3\vtypes.add.xml,C:\Users\trose\Workspace\Fellowship &apos;25 Personal\2025-Fellowship-Personal\SUMO\Existing Sims with Focus on Realistic Demands\RiLSA_example3\rilsa3_tls.add.xml"/>
    </input>

    <output>
        <tripinfo-output value="C:\Users\trose\Workspace\Fellowship &apos;25 Personal\2025-Fellowship-Personal\SUMO\Existing Sims with Focus on Realistic Demands\RiLSA_example3\tripinfos.xml"/>
    </output>

    <report>
        <log value="C:\Users\trose\Workspace\Fellowship &apos;25 Personal\2025-Fellowship-Personal\SUMO\Existing Sims with Focus on Realistic Demands\RiLSA_example3\sumo_log.txt"/>
    </report>

</sumoConfiguration>
-->

<tripinfos xmlns:xsi="http://www.w3.org/2001/XMLSchema-instance" xsi:noNamespaceSchemaLocation="http://sumo.dlr.de/xsd/tripinfo_file.xsd">
    <tripinfo id="em2mnLKW.0" depart="0.00" departLane="em_0" departPos="15.10" departSpeed="14.73" departDelay="0.00" arrival="70.00" arrivalLane="mn_0" arrivalPos="490.95" arrivalSpeed="14.07" duration="70.00" routeLength="975.38" waitingTime="0.00" waitingCount="0" stopTime="0.00" timeLoss="3.18" rerouteNo="0" devices="tripinfo_em2mnLKW.0" vType="LKW" speedFactor="1.06" vaporized=""/>
    <tripinfo id="em2msLKW.0" depart="0.00" departLane="em_1" departPos="15.10" departSpeed="14.04" departDelay="0.00" arrival="75.00" arrivalLane="ms_0" arrivalPos="490.95" arrivalSpeed="13.75" duration="75.00" routeLength="982.88" waitingTime="0.00" waitingCount="0" stopTime="0.00" timeLoss="4.84" rerouteNo="0" devices="tripinfo_em2msLKW.0" vType="LKW" speedFactor="1.01" vaporized=""/>
    <tripinfo id="em2msPKW.0" depart="1.00" departLane="em_1" departPos="5.10" departSpeed="10.66" departDelay="1.00" arrival="78.00" arrivalLane="ms_0" arrivalPos="490.95" arrivalSpeed="14.47" duration="77.00" routeLength="992.88" waitingTime="0.00" waitingCount="0" stopTime="0.00" timeLoss="10.20" rerouteNo="0" devices="tripinfo_em2msPKW.0" vType="PKW" speedFactor="1.08" vaporized=""/>
    <tripinfo id="em2mwLKW.0" depart="3.00" departLane="em_0" departPos="15.10" departSpeed="11.15" departDelay="3.00" arrival="80.00" arrivalLane="mw_0" arrivalPos="490.95" arrivalSpeed="13.89" duration="77.00" routeLength="984.23" waitingTime="0.00" waitingCount="0" stopTime="0.00" timeLoss="7.44" rerouteNo="0" devices="tripinfo_em2mwLKW.0" vType="LKW" speedFactor="1.03" vaporized=""/>
    <tripinfo id="em2mnPKW.0" depart="1.00" departLane="em_0" departPos="5.10" departSpeed="12.45" departDelay="1.00" arrival="81.00" arrivalLane="mn_0" arrivalPos="490.95" arrivalSpeed="11.83" duration="80.00" routeLength="985.38" waitingTime="0.00" waitingCount="0" stopTime="0.00" timeLoss="3.82" rerouteNo="0" devices="tripinfo_em2mnPKW.0" vType="PKW" speedFactor="0.94" vaporized=""/>
    <tripinfo id="em2mwPKW.0" depart="4.00" departLane="em_0" departPos="5.10" departSpeed="7.71" departDelay="4.00" arrival="97.00" arrivalLane="mw_0" arrivalPos="490.95" arrivalSpeed="11.25" duration="93.00" routeLength="994.23" waitingTime="0.00" waitingCount="0" stopTime="0.00" timeLoss="6.21" rerouteNo="0" devices="tripinfo_em2mwPKW.0" vType="PKW" speedFactor="0.83" vaporized=""/>
    <tripinfo id="em2msPKW.1" depart="21.00" departLane="em_1" departPos="5.10" departSpeed="13.83" departDelay="0.43" arrival="98.00" arrivalLane="ms_0" arrivalPos="490.95" arrivalSpeed="13.66" duration="77.00" routeLength="992.88" waitingTime="0.00" waitingCount="0" stopTime="0.00" timeLoss="4.78" rerouteNo="0" devices="tripinfo_em2msPKW.1" vType="PKW" speedFactor="0.99" vaporized=""/>
    <tripinfo id="sm2meLKW.0" depart="0.00" departLane="sm_0" departPos="15.10" departSpeed="14.55" departDelay="0.00" arrival="99.00" arrivalLane="me_0" arrivalPos="487.65" arrivalSpeed="13.71" duration="99.00" routeLength="972.35" waitingTime="23.00" waitingCount="1" stopTime="0.00" timeLoss="31.65" rerouteNo="0" devices="tripinfo_sm2meLKW.0" vType="LKW" speedFactor="1.05" vaporized=""/>
    <tripinfo id="sm2mePKW.0" depart="1.00" departLane="sm_0" departPos="5.10" departSpeed="12.23" departDelay="1.00" arrival="101.00" arrivalLane="me_0" arrivalPos="487.65" arrivalSpeed="14.82" duration="100.00" routeLength="982.35" waitingTime="23.00" waitingCount="1" stopTime="0.00" timeLoss="36.76" rerouteNo="0" devices="tripinfo_sm2mePKW.0" vType="PKW" speedFactor="1.12" vaporized=""/>
    <tripinfo id="sm2mnLKW.0" depart="0.00" departLane="sm_1" departPos="15.10" departSpeed="13.78" departDelay="0.00" arrival="102.00" arrivalLane="mn_0" arrivalPos="490.95" arrivalSpeed="13.62" duration="102.00" routeLength="984.31" waitingTime="21.00" waitingCount="1" stopTime="0.00" timeLoss="30.11" rerouteNo="0" devices="tripinfo_sm2mnLKW.0" vType="LKW" speedFactor="0.99" vaporized=""/>
    <tripinfo id="nm2msLKW.0" depart="0.00" departLane="nm_0" departPos="15.10" departSpeed="13.04" departDelay="0.00" arrival="104.00" arrivalLane="ms_0" arrivalPos="490.95" arrivalSpeed="12.57" duration="104.00" routeLength="984.31" waitingTime="20.00" waitingCount="1" stopTime="0.00" timeLoss="27.98" rerouteNo="0" devices="tripinfo_nm2msLKW.0" vType="LKW" speedFactor="0.94" vaporized=""/>
    <tripinfo id="nm2meLKW.0" depart="0.00" departLane="nm_1" departPos="15.10" departSpeed="14.54" departDelay="0.00" arrival="105.00" arrivalLane="me_0" arrivalPos="487.65" arrivalSpeed="13.51" duration="105.00" routeLength="982.88" waitingTime="24.00" waitingCount="2" stopTime="0.00" timeLoss="36.83" rerouteNo="0" devices="tripinfo_nm2meLKW.0" vType="LKW" speedFactor="1.05" vaporized=""/>
    <tripinfo id="sm2mnPKW.0" depart="1.00" departLane="sm_1" departPos="5.10" departSpeed="10.80" departDelay="1.00" arrival="107.00" arrivalLane="mn_0" arrivalPos="490.95" arrivalSpeed="12.87" duration="106.00" routeLength="994.31" waitingTime="19.00" waitingCount="1" stopTime="0.00" timeLoss="28.66" rerouteNo="0" devices="tripinfo_sm2mnPKW.0" vType="PKW" speedFactor="0.93" vaporized=""/>
    <tripinfo id="nm2msPKW.0" depart="1.00" departLane="nm_0" departPos="5.10" departSpeed="10.68" departDelay="1.00" arrival="111.00" arrivalLane="ms_0" arrivalPos="490.95" arrivalSpeed="11.01" duration="110.00" routeLength="994.31" waitingTime="17.00" waitingCount="1" stopTime="0.00" timeLoss="26.08" rerouteNo="0" devices="tripinfo_nm2msPKW.0" vType="PKW" speedFactor="0.86" vaporized=""/>
    <tripinfo id="sm2mwLKW.0" depart="0.00" departLane="sm_2" departPos="15.10" departSpeed="12.21" departDelay="0.00" arrival="112.00" arrivalLane="mw_0" arrivalPos="490.95" arrivalSpeed="12.13" duration="112.00" routeLength="983.45" waitingTime="18.00" waitingCount="2" stopTime="0.00" timeLoss="31.02" rerouteNo="0" devices="tripinfo_sm2mwLKW.0" vType="LKW" speedFactor="0.88" vaporized=""/>
    <tripinfo id="sm2mnPKW.1" depart="11.00" departLane="sm_1" departPos="5.10" departSpeed="13.19" departDelay="0.94" arrival="113.00" arrivalLane="mn_0" arrivalPos="490.95" arrivalSpeed="12.43" duration="102.00" routeLength="994.31" waitingTime="12.00" waitingCount="1" stopTime="0.00" timeLoss="26.12" rerouteNo="0" devices="tripinfo_sm2mnPKW.1" vType="PKW" speedFactor="0.95" vaporized=""/>
    <tripinfo id="nm2msPKW.1" depart="11.00" departLane="nm_0" departPos="5.10" departSpeed="15.73" departDelay="0.92" arrival="113.00" arrivalLane="ms_0" arrivalPos="490.95" arrivalSpeed="15.51" duration="102.00" routeLength="994.31" waitingTime="13.00" waitingCount="1" stopTime="0.00" timeLoss="38.47" rerouteNo="0" devices="tripinfo_nm2msPKW.1" vType="PKW" speedFactor="1.13" vaporized=""/>
    <tripinfo id="sm2mePKW.1" depart="10.00" departLane="sm_0" departPos="5.10" departSpeed="12.75" departDelay="0.22" arrival="114.00" arrivalLane="me_0" arrivalPos="487.65" arrivalSpeed="12.43" duration="104.00" routeLength="982.35" waitingTime="13.00" waitingCount="2" stopTime="0.00" timeLoss="26.61" rerouteNo="0" devices="tripinfo_sm2mePKW.1" vType="PKW" speedFactor="0.92" vaporized=""/>
    <tripinfo id="sm2mwPKW.0" depart="1.00" departLane="sm_2" departPos="5.10" departSpeed="9.83" departDelay="1.00" arrival="115.00" arrivalLane="mw_0" arrivalPos="490.95" arrivalSpeed="12.03" duration="114.00" routeLength="993.45" waitingTime="17.00" waitingCount="2" stopTime="0.00" timeLoss="37.21" rerouteNo="0" devices="tripinfo_sm2mwPKW.0" vType="PKW" speedFactor="0.94" vaporized=""/>
    <tripinfo id="sm2mnPKW.2" depart="21.00" departLane="sm_1" departPos="5.10" departSpeed="13.97" departDelay="0.89" arrival="115.00" arrivalLane="mn_0" arrivalPos="490.95" arrivalSpeed="13.78" duration="94.00" routeLength="994.31" waitingTime="5.00" waitingCount="1" stopTime="0.00" timeLoss="21.99" rerouteNo="0" devices="tripinfo_sm2mnPKW.2" vType="PKW" speedFactor="1.01" vaporized=""/>
    <tripinfo id="nm2msPKW.2" depart="21.00" departLane="nm_0" departPos="5.10" departSpeed="16.29" departDelay="0.83" arrival="115.00" arrivalLane="ms_0" arrivalPos="490.95" arrivalSpeed="16.12" duration="94.00" routeLength="994.31" waitingTime="13.00" waitingCount="1" stopTime="0.00" timeLoss="32.17" rerouteNo="0" devices="tripinfo_nm2msPKW.2" vType="PKW" speedFactor="1.17" vaporized=""/>
    <tripinfo id="nm2mwLKW.0" depart="3.00" departLane="nm_0" departPos="15.10" departSpeed="7.55" departDelay="3.00" arrival="116.00" arrivalLane="mw_0" arrivalPos="490.95" arrivalSpeed="14.35" duration="113.00" routeLength="975.65" waitingTime="17.00" waitingCount="3" stopTime="0.00" timeLoss="48.26" rerouteNo="0" devices="tripinfo_nm2mwLKW.0" vType="LKW" speedFactor="1.09" vaporized=""/>
    <tripinfo id="sm2mePKW.2" depart="20.00" departLane="sm_0" departPos="5.10" departSpeed="16.05" departDelay="0.44" arrival="116.00" arrivalLane="me_0" arrivalPos="487.65" arrivalSpeed="15.44" duration="96.00" routeLength="982.35" waitingTime="11.00" waitingCount="2" stopTime="0.00" timeLoss="34.05" rerouteNo="0" devices="tripinfo_sm2mePKW.2" vType="PKW" speedFactor="1.15" vaporized=""/>
    <tripinfo id="sm2mePKW.3" depart="30.00" departLane="sm_0" departPos="5.10" departSpeed="15.32" departDelay="0.65" arrival="117.00" arrivalLane="me_0" arrivalPos="487.65" arrivalSpeed="14.67" duration="87.00" routeLength="982.35" waitingTime="0.00" waitingCount="0" stopTime="0.00" timeLoss="22.70" rerouteNo="0" devices="tripinfo_sm2mePKW.3" vType="PKW" speedFactor="1.10" vaporized=""/>
    <tripinfo id="nm2mwPKW.0" depart="4.00" departLane="nm_0" departPos="5.10" departSpeed="2.08" departDelay="4.00" arrival="118.00" arrivalLane="mw_0" arrivalPos="490.95" arrivalSpeed="13.18" duration="114.00" routeLength="985.65" waitingTime="15.00" waitingCount="1" stopTime="0.00" timeLoss="44.89" rerouteNo="0" devices="tripinfo_nm2mwPKW.0" vType="PKW" speedFactor="1.03" vaporized=""/>
    <tripinfo id="sm2mnPKW.3" depart="31.00" departLane="sm_1" departPos="5.10" departSpeed="12.52" departDelay="0.84" arrival="119.00" arrivalLane="mn_0" arrivalPos="490.95" arrivalSpeed="12.32" duration="88.00" routeLength="994.31" waitingTime="0.00" waitingCount="0" stopTime="0.00" timeLoss="7.61" rerouteNo="0" devices="tripinfo_sm2mnPKW.3" vType="PKW" speedFactor="0.90" vaporized=""/>
    <tripinfo id="sm2mePKW.4" depart="40.00" departLane="sm_0" departPos="5.10" departSpeed="14.43" departDelay="0.87" arrival="119.00" arrivalLane="me_0" arrivalPos="487.65" arrivalSpeed="13.23" duration="79.00" routeLength="982.35" waitingTime="0.00" waitingCount="0" stopTime="0.00" timeLoss="10.43" rerouteNo="0" devices="tripinfo_sm2mePKW.4" vType="PKW" speedFactor="1.04" vaporized=""/>
    <tripinfo id="nm2msPKW.3" depart="31.00" departLane="nm_0" departPos="5.10" departSpeed="14.32" departDelay="0.75" arrival="120.00" arrivalLane="ms_0" arrivalPos="490.95" arrivalSpeed="14.09" duration="89.00" routeLength="994.31" waitingTime="2.00" waitingCount="1" stopTime="0.00" timeLoss="18.85" rerouteNo="0" devices="tripinfo_nm2msPKW.3" vType="PKW" speedFactor="1.03" vaporized=""/>
    <tripinfo id="sm2mnPKW.4" depart="41.00" departLane="sm_1" departPos="5.10" departSpeed="14.50" departDelay="0.78" arrival="120.00" arrivalLane="mn_0" arrivalPos="490.95" arrivalSpeed="13.68" duration="79.00" routeLength="994.31" waitingTime="0.00" waitingCount="0" stopTime="0.00" timeLoss="10.06" rerouteNo="0" devices="tripinfo_sm2mnPKW.4" vType="PKW" speedFactor="1.04" vaporized=""/>
    <tripinfo id="nm2mePKW.0" depart="1.00" departLane="nm_1" departPos="5.10" departSpeed="12.32" departDelay="1.00" arrival="125.00" arrivalLane="me_0" arrivalPos="487.65" arrivalSpeed="11.65" duration="124.00" routeLength="992.88" waitingTime="25.00" waitingCount="3" stopTime="0.00" timeLoss="42.68" rerouteNo="0" devices="tripinfo_nm2mePKW.0" vType="PKW" speedFactor="0.89" vaporized=""/>
    <tripinfo id="em2msPKW.2" depart="42.00" departLane="em_1" departPos="5.10" departSpeed="12.52" departDelay="0.86" arrival="127.00" arrivalLane="ms_0" arrivalPos="490.95" arrivalSpeed="11.42" duration="85.00" routeLength="992.88" waitingTime="0.00" waitingCount="0" stopTime="0.00" timeLoss="5.22" rerouteNo="0" devices="tripinfo_em2msPKW.2" vType="PKW" speedFactor="0.90" vaporized=""/>
    <tripinfo id="wm2mnLKW.0" depart="0.00" departLane="wm_1" departPos="15.10" departSpeed="14.15" departDelay="0.00" arrival="131.00" arrivalLane="mn_0" arrivalPos="490.95" arrivalSpeed="13.95" duration="131.00" routeLength="983.44" waitingTime="54.00" waitingCount="1" stopTime="0.00" timeLoss="61.35" rerouteNo="0" devices="tripinfo_wm2mnLKW.0" vType="LKW" speedFactor="1.02" vaporized=""/>
    <tripinfo id="wm2mnPKW.0" depart="1.00" departLane="wm_1" departPos="5.10" departSpeed="11.39" departDelay="1.00" arrival="134.00" arrivalLane="mn_0" arrivalPos="490.95" arrivalSpeed="14.03" duration="133.00" routeLength="993.44" waitingTime="53.00" waitingCount="1" stopTime="0.00" timeLoss="62.18" rerouteNo="0" devices="tripinfo_wm2mnPKW.0" vType="PKW" speedFactor="1.01" vaporized=""/>
    <tripinfo id="wm2meLKW.0" depart="0.00" departLane="wm_0" departPos="15.10" departSpeed="13.01" departDelay="0.00" arrival="136.00" arrivalLane="me_0" arrivalPos="487.65" arrivalSpeed="12.06" duration="136.00" routeLength="984.23" waitingTime="51.00" waitingCount="1" stopTime="0.00" timeLoss="59.70" rerouteNo="0" devices="tripinfo_wm2meLKW.0" vType="LKW" speedFactor="0.94" vaporized=""/>
    <tripinfo id="wm2mnPKW.1" depart="59.00" departLane="wm_1" departPos="5.10" departSpeed="15.88" departDelay="0.94" arrival="136.00" arrivalLane="mn_0" arrivalPos="490.95" arrivalSpeed="15.43" duration="77.00" routeLength="993.44" waitingTime="1.00" waitingCount="1" stopTime="0.00" timeLoss="13.85" rerouteNo="0" devices="tripinfo_wm2mnPKW.1" vType="PKW" speedFactor="1.14" vaporized=""/>
    <tripinfo id="wm2msLKW.0" depart="3.00" departLane="wm_0" departPos="15.10" departSpeed="8.15" departDelay="3.00" arrival="137.00" arrivalLane="ms_0" arrivalPos="490.95" arrivalSpeed="12.85" duration="134.00" routeLength="975.65" waitingTime="50.00" waitingCount="1" stopTime="0.00" timeLoss="61.78" rerouteNo="0" devices="tripinfo_wm2msLKW.0" vType="LKW" speedFactor="0.97" vaporized=""/>
    <tripinfo id="wm2mePKW.0" depart="1.00" departLane="wm_0" departPos="5.10" departSpeed="10.01" departDelay="1.00" arrival="138.00" arrivalLane="me_0" arrivalPos="487.65" arrivalSpeed="15.49" duration="137.00" routeLength="994.23" waitingTime="50.00" waitingCount="1" stopTime="0.00" timeLoss="74.70" rerouteNo="0" devices="tripinfo_wm2mePKW.0" vType="PKW" speedFactor="1.16" vaporized=""/>
    <tripinfo id="wm2msPKW.0" depart="4.00" departLane="wm_0" departPos="5.10" departSpeed="4.77" departDelay="4.00" arrival="144.00" arrivalLane="ms_0" arrivalPos="490.95" arrivalSpeed="11.55" duration="140.00" routeLength="985.65" waitingTime="48.00" waitingCount="1" stopTime="0.00" timeLoss="59.55" rerouteNo="0" devices="tripinfo_wm2msPKW.0" vType="PKW" speedFactor="0.89" vaporized=""/>
    <tripinfo id="wm2mePKW.1" depart="9.00" departLane="wm_0" departPos="5.10" departSpeed="12.13" departDelay="0.89" arrival="147.00" arrivalLane="me_0" arrivalPos="487.65" arrivalSpeed="11.10" duration="138.00" routeLength="994.23" waitingTime="44.00" waitingCount="1" stopTime="0.00" timeLoss="55.66" rerouteNo="0" devices="tripinfo_wm2mePKW.1" vType="PKW" speedFactor="0.87" vaporized=""/>
    <tripinfo id="wm2mePKW.2" depart="17.00" departLane="wm_0" departPos="5.10" departSpeed="16.38" departDelay="0.78" arrival="149.00" arrivalLane="me_0" arrivalPos="487.65" arrivalSpeed="15.26" duration="132.00" routeLength="994.23" waitingTime="43.00" waitingCount="1" stopTime="0.00" timeLoss="70.47" rerouteNo="0" devices="tripinfo_wm2mePKW.2" vType="PKW" speedFactor="1.18" vaporized=""/>
    <tripinfo id="wm2mePKW.3" depart="25.00" departLane="wm_0" departPos="5.10" departSpeed="13.53" departDelay="0.68" arrival="150.00" arrivalLane="me_0" arrivalPos="487.65" arrivalSpeed="12.56" duration="125.00" routeLength="994.23" waitingTime="37.00" waitingCount="1" stopTime="0.00" timeLoss="51.32" rerouteNo="0" devices="tripinfo_wm2mePKW.3" vType="PKW" speedFactor="0.97" vaporized=""/>
    <tripinfo id="wm2mePKW.4" depart="33.00" departLane="wm_0" departPos="5.10" departSpeed="13.30" departDelay="0.57" arrival="152.00" arrivalLane="me_0" arrivalPos="487.65" arrivalSpeed="12.46" duration="119.00" routeLength="994.23" waitingTime="30.00" waitingCount="1" stopTime="0.00" timeLoss="43.75" rerouteNo="0" devices="tripinfo_wm2mePKW.4" vType="PKW" speedFactor="0.96" vaporized=""/>
    <tripinfo id="wm2mePKW.5" depart="41.00" departLane="wm_0" departPos="5.10" departSpeed="13.86" departDelay="0.46" arrival="154.00" arrivalLane="me_0" arrivalPos="487.65" arrivalSpeed="13.27" duration="113.00" routeLength="994.23" waitingTime="24.00" waitingCount="1" stopTime="0.00" timeLoss="40.44" rerouteNo="0" devices="tripinfo_wm2mePKW.5" vType="PKW" speedFactor="1.00" vaporized=""/>
    <tripinfo id="wm2mePKW.6" depart="49.00" departLane="wm_0" departPos="5.10" departSpeed="11.82" departDelay="0.35" arrival="158.00" arrivalLane="me_0" arrivalPos="487.65" arrivalSpeed="11.36" duration="109.00" routeLength="994.23" waitingTime="14.00" waitingCount="1" stopTime="0.00" timeLoss="24.21" rerouteNo="0" devices="tripinfo_wm2mePKW.6" vType="PKW" speedFactor="0.85" vaporized=""/>
    <tripinfo id="wm2msPKW.1" depart="67.00" departLane="wm_0" departPos="5.10" departSpeed="13.03" departDelay="0.33" arrival="158.00" arrivalLane="ms_0" arrivalPos="490.95" arrivalSpeed="13.03" duration="91.00" routeLength="985.65" waitingTime="3.00" waitingCount="1" stopTime="0.00" timeLoss="14.78" rerouteNo="0" devices="tripinfo_wm2msPKW.1" vType="PKW" speedFactor="0.94" vaporized=""/>
    <tripinfo id="em2msPKW.3" depart="62.00" departLane="em_1" departPos="5.10" departSpeed="15.56" departDelay="0.29" arrival="159.00" arrivalLane="ms_0" arrivalPos="490.95" arrivalSpeed="14.78" duration="97.00" routeLength="992.88" waitingTime="23.00" waitingCount="1" stopTime="0.00" timeLoss="33.15" rerouteNo="0" devices="tripinfo_em2msPKW.3" vType="PKW" speedFactor="1.12" vaporized=""/>
    <tripinfo id="wm2mePKW.7" depart="57.00" departLane="wm_0" departPos="5.10" departSpeed="12.49" departDelay="0.24" arrival="160.00" arrivalLane="me_0" arrivalPos="487.65" arrivalSpeed="11.57" duration="103.00" routeLength="994.23" waitingTime="10.00" waitingCount="1" stopTime="0.00" timeLoss="22.55" rerouteNo="0" devices="tripinfo_wm2mePKW.7" vType="PKW" speedFactor="0.90" vaporized=""/>
    <tripinfo id="wm2mePKW.8" depart="65.00" departLane="wm_0" departPos="5.10" departSpeed="13.72" departDelay="0.14" arrival="161.00" arrivalLane="me_0" arrivalPos="487.65" arrivalSpeed="12.94" duration="96.00" routeLength="994.23" waitingTime="6.00" waitingCount="1" stopTime="0.00" timeLoss="23.23" rerouteNo="0" devices="tripinfo_wm2mePKW.8" vType="PKW" speedFactor="0.99" vaporized=""/>
    <tripinfo id="wm2mePKW.9" depart="73.00" departLane="wm_0" departPos="5.10" departSpeed="14.22" departDelay="0.03" arrival="163.00" arrivalLane="me_0" arrivalPos="487.65" arrivalSpeed="13.99" duration="90.00" routeLength="994.23" waitingTime="0.00" waitingCount="0" stopTime="0.00" timeLoss="19.35" rerouteNo="0" devices="tripinfo_wm2mePKW.9" vType="PKW" speedFactor="1.02" vaporized=""/>
    <tripinfo id="em2msPKW.4" depart="83.00" departLane="em_1" departPos="5.10" departSpeed="14.00" departDelay="0.72" arrival="164.00" arrivalLane="ms_0" arrivalPos="490.95" arrivalSpeed="12.76" duration="81.00" routeLength="992.88" waitingTime="0.00" waitingCount="0" stopTime="0.00" timeLoss="9.49" rerouteNo="0" devices="tripinfo_em2msPKW.4" vType="PKW" speedFactor="1.01" vaporized=""/>
    <tripinfo id="em2mwPKW.1" depart="7.00" departLane="em_0" departPos="5.10" departSpeed="11.48" departDelay="0.00" arrival="168.00" arrivalLane="mw_0" arrivalPos="490.95" arrivalSpeed="10.30" duration="161.00" routeLength="994.23" waitingTime="65.00" waitingCount="1" stopTime="0.00" timeLoss="74.36" rerouteNo="0" devices="tripinfo_em2mwPKW.1" vType="PKW" speedFactor="0.83" vaporized=""/>
    <tripinfo id="em2mwPKW.2" depart="15.00" departLane="em_0" departPos="5.10" departSpeed="12.95" departDelay="0.99" arrival="170.00" arrivalLane="mw_0" arrivalPos="490.95" arrivalSpeed="12.91" duration="155.00" routeLength="994.23" waitingTime="62.00" waitingCount="1" stopTime="0.00" timeLoss="77.72" rerouteNo="0" devices="tripinfo_em2mwPKW.2" vType="PKW" speedFactor="0.93" vaporized=""/>
    <tripinfo id="em2mwPKW.3" depart="22.00" departLane="em_0" departPos="5.10" departSpeed="14.17" departDelay="0.99" arrival="172.00" arrivalLane="mw_0" arrivalPos="490.95" arrivalSpeed="13.80" duration="150.00" routeLength="994.23" waitingTime="61.00" waitingCount="1" stopTime="0.00" timeLoss="79.05" rerouteNo="0" devices="tripinfo_em2mwPKW.3" vType="PKW" speedFactor="1.02" vaporized=""/>
    <tripinfo id="em2mwPKW.4" depart="29.00" departLane="em_0" departPos="5.10" departSpeed="16.40" departDelay="0.99" arrival="173.00" arrivalLane="mw_0" arrivalPos="490.95" arrivalSpeed="15.56" duration="144.00" routeLength="994.23" waitingTime="59.00" waitingCount="1" stopTime="0.00" timeLoss="83.07" rerouteNo="0" devices="tripinfo_em2mwPKW.4" vType="PKW" speedFactor="1.18" vaporized=""/>
    <tripinfo id="em2mnPKW.1" depart="51.00" departLane="em_0" departPos="5.10" departSpeed="13.97" departDelay="1.69" arrival="173.00" arrivalLane="mn_0" arrivalPos="490.95" arrivalSpeed="13.25" duration="122.00" routeLength="985.38" waitingTime="38.00" waitingCount="1" stopTime="0.00" timeLoss="51.44" rerouteNo="0" devices="tripinfo_em2mnPKW.1" vType="PKW" speedFactor="1.02" vaporized=""/>
    <tripinfo id="em2mwPKW.5" depart="36.00" departLane="em_0" departPos="5.10" departSpeed="15.18" departDelay="0.98" arrival="175.00" arrivalLane="mw_0" arrivalPos="490.95" arrivalSpeed="15.10" duration="139.00" routeLength="994.23" waitingTime="52.00" waitingCount="1" stopTime="0.00" timeLoss="72.88" rerouteNo="0" devices="tripinfo_em2mwPKW.5" vType="PKW" speedFactor="1.09" vaporized=""/>
    <tripinfo id="em2mwPKW.6" depart="43.00" departLane="em_0" departPos="5.10" departSpeed="12.19" departDelay="0.98" arrival="177.00" arrivalLane="mw_0" arrivalPos="490.95" arrivalSpeed="12.11" duration="134.00" routeLength="994.23" waitingTime="39.00" waitingCount="1" stopTime="0.00" timeLoss="52.05" rerouteNo="0" devices="tripinfo_em2mwPKW.6" vType="PKW" speedFactor="0.88" vaporized=""/>
    <tripinfo id="em2mwPKW.7" depart="50.00" departLane="em_0" departPos="5.10" departSpeed="16.25" departDelay="0.98" arrival="179.00" arrivalLane="mw_0" arrivalPos="490.95" arrivalSpeed="15.77" duration="129.00" routeLength="994.23" waitingTime="38.00" waitingCount="1" stopTime="0.00" timeLoss="66.91" rerouteNo="0" devices="tripinfo_em2mwPKW.7" vType="PKW" speedFactor="1.17" vaporized=""/>
    <tripinfo id="em2mwPKW.8" depart="57.00" departLane="em_0" departPos="5.10" departSpeed="13.84" departDelay="0.98" arrival="180.00" arrivalLane="mw_0" arrivalPos="490.95" arrivalSpeed="13.43" duration="123.00" routeLength="994.23" waitingTime="34.00" waitingCount="1" stopTime="0.00" timeLoss="51.04" rerouteNo="0" devices="tripinfo_em2mwPKW.8" vType="PKW" speedFactor="1.00" vaporized=""/>
    <tripinfo id="nm2msPKW.4" depart="41.00" departLane="nm_0" departPos="5.10" departSpeed="15.12" departDelay="0.66" arrival="186.00" arrivalLane="ms_0" arrivalPos="490.95" arrivalSpeed="14.74" duration="145.00" routeLength="994.31" waitingTime="62.00" waitingCount="1" stopTime="0.00" timeLoss="78.38" rerouteNo="0" devices="tripinfo_nm2msPKW.4" vType="PKW" speedFactor="1.09" vaporized=""/>
    <tripinfo id="sm2mnPKW.5" depart="51.00" departLane="sm_1" departPos="5.10" departSpeed="15.23" departDelay="0.73" arrival="186.00" arrivalLane="mn_0" arrivalPos="490.95" arrivalSpeed="14.98" duration="135.00" routeLength="994.31" waitingTime="60.00" waitingCount="1" stopTime="0.00" timeLoss="68.94" rerouteNo="0" devices="tripinfo_sm2mnPKW.5" vType="PKW" speedFactor="1.10" vaporized=""/>
    <tripinfo id="nm2msPKW.5" depart="51.00" departLane="nm_0" departPos="5.10" departSpeed="13.94" departDelay="0.58" arrival="191.00" arrivalLane="ms_0" arrivalPos="490.95" arrivalSpeed="13.70" duration="140.00" routeLength="994.31" waitingTime="58.00" waitingCount="1" stopTime="0.00" timeLoss="67.98" rerouteNo="0" devices="tripinfo_nm2msPKW.5" vType="PKW" speedFactor="1.00" vaporized=""/>
    <tripinfo id="sm2mnPKW.6" depart="61.00" departLane="sm_1" departPos="5.10" departSpeed="13.48" departDelay="0.67" arrival="192.00" arrivalLane="mn_0" arrivalPos="490.95" arrivalSpeed="12.69" duration="131.00" routeLength="994.31" waitingTime="47.00" waitingCount="1" stopTime="0.00" timeLoss="56.31" rerouteNo="0" devices="tripinfo_sm2mnPKW.6" vType="PKW" speedFactor="0.97" vaporized=""/>
    <tripinfo id="nm2msPKW.6" depart="61.00" departLane="nm_0" departPos="5.10" departSpeed="15.05" departDelay="0.50" arrival="192.00" arrivalLane="ms_0" arrivalPos="490.95" arrivalSpeed="15.01" duration="131.00" routeLength="994.31" waitingTime="53.00" waitingCount="1" stopTime="0.00" timeLoss="64.74" rerouteNo="0" devices="tripinfo_nm2msPKW.6" vType="PKW" speedFactor="1.08" vaporized=""/>
    <tripinfo id="sm2mnPKW.7" depart="71.00" departLane="sm_1" departPos="5.10" departSpeed="14.46" departDelay="0.61" arrival="193.00" arrivalLane="mn_0" arrivalPos="490.95" arrivalSpeed="14.09" duration="122.00" routeLength="994.31" waitingTime="41.00" waitingCount="1" stopTime="0.00" timeLoss="52.94" rerouteNo="0" devices="tripinfo_sm2mnPKW.7" vType="PKW" speedFactor="1.04" vaporized=""/>
    <tripinfo id="sm2mePKW.5" depart="49.00" departLane="sm_0" departPos="5.10" departSpeed="11.88" departDelay="0.09" arrival="194.00" arrivalLane="me_0" arrivalPos="487.65" arrivalSpeed="11.15" duration="145.00" routeLength="982.35" waitingTime="52.00" waitingCount="1" stopTime="0.00" timeLoss="61.89" rerouteNo="0" devices="tripinfo_sm2mePKW.5" vType="PKW" speedFactor="0.85" vaporized=""/>
    <tripinfo id="nm2msPKW.7" depart="71.00" departLane="nm_0" departPos="5.10" departSpeed="14.21" departDelay="0.41" arrival="194.00" arrivalLane="ms_0" arrivalPos="490.95" arrivalSpeed="14.02" duration="123.00" routeLength="994.31" waitingTime="42.00" waitingCount="1" stopTime="0.00" timeLoss="52.67" rerouteNo="0" devices="tripinfo_nm2msPKW.7" vType="PKW" speedFactor="1.02" vaporized=""/>
    <tripinfo id="sm2mePKW.6" depart="59.00" departLane="sm_0" departPos="5.10" departSpeed="14.23" departDelay="0.31" arrival="195.00" arrivalLane="me_0" arrivalPos="487.65" arrivalSpeed="14.15" duration="136.00" routeLength="982.35" waitingTime="51.00" waitingCount="1" stopTime="0.00" timeLoss="66.96" rerouteNo="0" devices="tripinfo_sm2mePKW.6" vType="PKW" speedFactor="1.02" vaporized=""/>
    <tripinfo id="sm2mnPKW.8" depart="81.00" departLane="sm_1" departPos="5.10" departSpeed="14.67" departDelay="0.56" arrival="195.00" arrivalLane="mn_0" arrivalPos="490.95" arrivalSpeed="13.46" duration="114.00" routeLength="994.31" waitingTime="33.00" waitingCount="1" stopTime="0.00" timeLoss="45.63" rerouteNo="0" devices="tripinfo_sm2mnPKW.8" vType="PKW" speedFactor="1.06" vaporized=""/>
    <tripinfo id="sm2mnLKW.1" depart="83.00" departLane="sm_1" departPos="15.10" departSpeed="13.77" departDelay="1.18" arrival="197.00" arrivalLane="mn_0" arrivalPos="490.95" arrivalSpeed="13.85" duration="114.00" routeLength="984.31" waitingTime="32.00" waitingCount="1" stopTime="0.00" timeLoss="44.51" rerouteNo="0" devices="tripinfo_sm2mnLKW.1" vType="LKW" speedFactor="1.03" vaporized=""/>
    <tripinfo id="sm2mePKW.7" depart="69.00" departLane="sm_0" departPos="5.10" departSpeed="12.26" departDelay="0.53" arrival="198.00" arrivalLane="me_0" arrivalPos="487.65" arrivalSpeed="12.03" duration="129.00" routeLength="982.35" waitingTime="37.00" waitingCount="1" stopTime="0.00" timeLoss="48.04" rerouteNo="0" devices="tripinfo_sm2mePKW.7" vType="PKW" speedFactor="0.88" vaporized=""/>
    <tripinfo id="nm2msPKW.8" depart="81.00" departLane="nm_0" departPos="5.10" departSpeed="13.28" departDelay="0.33" arrival="198.00" arrivalLane="ms_0" arrivalPos="490.95" arrivalSpeed="12.02" duration="117.00" routeLength="994.31" waitingTime="31.00" waitingCount="1" stopTime="0.00" timeLoss="41.34" rerouteNo="0" devices="tripinfo_nm2msPKW.8" vType="PKW" speedFactor="0.96" vaporized=""/>