<?xml version="1.0" encoding="UTF-8"?>

<!-- generated on 2025-05-27 23:30:54 by Eclipse SUMO GUI Version 1.23.1
<sumoConfiguration xmlns:xsi="http://www.w3.org/2001/XMLSchema-instance" xsi:noNamespaceSchemaLocation="http://sumo.dlr.de/xsd/sumoConfiguration.xsd">

    <input>
        <net-file value="C:\Users\trose\Workspace\Fellowship &apos;25 Personal\2025-Fellowship-Personal\SUMO\Existing Sims with Focus on Realistic Demands\RiLSA_example4\rilsa4.net.xml"/>
        <route-files value="C:\Users\trose\Workspace\Fellowship &apos;25 Personal\2025-Fellowship-Personal\SUMO\Existing Sims with Focus on Realistic Demands\RiLSA_example4\genroutes.rou.xml"/>
        <additional-files value="C:\Users\trose\Workspace\Fellowship &apos;25 Personal\2025-Fellowship-Personal\SUMO\Existing Sims with Focus on Realistic Demands\RiLSA_example4\vtypes.add.xml,C:\Users\trose\Workspace\Fellowship &apos;25 Personal\2025-Fellowship-Personal\SUMO\Existing Sims with Focus on Realistic Demands\RiLSA_example4\rilsa4_tls.add.xml"/>
    </input>

    <output>
        <tripinfo-output value="C:\Users\trose\Workspace\Fellowship &apos;25 Personal\2025-Fellowship-Personal\SUMO\Existing Sims with Focus on Realistic Demands\RiLSA_example4\tripinfos.xml"/>
    </output>

    <report>
        <log value="C:\Users\trose\Workspace\Fellowship &apos;25 Personal\2025-Fellowship-Personal\SUMO\Existing Sims with Focus on Realistic Demands\RiLSA_example4\sumo_log.txt"/>
    </report>

</sumoConfiguration>
-->

<tripinfos xmlns:xsi="http://www.w3.org/2001/XMLSchema-instance" xsi:noNamespaceSchemaLocation="http://sumo.dlr.de/xsd/tripinfo_file.xsd">
    <tripinfo id="em2mnLKW.0" depart="0.00" departLane="em_0" departPos="15.10" departSpeed="14.73" departDelay="0.00" arrival="70.00" arrivalLane="mn_0" arrivalPos="490.95" arrivalSpeed="13.57" duration="70.00" routeLength="975.65" waitingTime="0.00" waitingCount="0" stopTime="0.00" timeLoss="3.17" rerouteNo="0" devices="tripinfo_em2mnLKW.0" vType="LKW" speedFactor="1.06" vaporized=""/>
    <tripinfo id="em2msLKW.0" depart="0.00" departLane="em_1" departPos="15.10" departSpeed="14.04" departDelay="0.00" arrival="74.00" arrivalLane="ms_0" arrivalPos="487.65" arrivalSpeed="13.28" duration="74.00" routeLength="982.88" waitingTime="0.00" waitingCount="0" stopTime="0.00" timeLoss="3.20" rerouteNo="0" devices="tripinfo_em2msLKW.0" vType="LKW" speedFactor="1.01" vaporized=""/>
    <tripinfo id="wm2mnLKW.0" depart="0.00" departLane="wm_2" departPos="15.10" departSpeed="14.15" departDelay="0.00" arrival="74.00" arrivalLane="mn_0" arrivalPos="490.95" arrivalSpeed="13.40" duration="74.00" routeLength="983.45" waitingTime="0.00" waitingCount="0" stopTime="0.00" timeLoss="3.73" rerouteNo="0" devices="tripinfo_wm2mnLKW.0" vType="LKW" speedFactor="1.02" vaporized=""/>
    <tripinfo id="wm2mnPKW.0" depart="1.00" departLane="wm_2" departPos="5.10" departSpeed="11.39" departDelay="1.00" arrival="76.00" arrivalLane="mn_0" arrivalPos="490.95" arrivalSpeed="13.82" duration="75.00" routeLength="993.45" waitingTime="0.00" waitingCount="0" stopTime="0.00" timeLoss="3.97" rerouteNo="0" devices="tripinfo_wm2mnPKW.0" vType="PKW" speedFactor="1.01" vaporized=""/>
    <tripinfo id="wm2msLKW.0" depart="0.00" departLane="wm_0" departPos="15.10" departSpeed="13.55" departDelay="0.00" arrival="78.00" arrivalLane="ms_0" arrivalPos="487.65" arrivalSpeed="12.67" duration="78.00" routeLength="972.35" waitingTime="0.00" waitingCount="0" stopTime="0.00" timeLoss="5.53" rerouteNo="0" devices="tripinfo_wm2msLKW.0" vType="LKW" speedFactor="0.97" vaporized=""/>
    <tripinfo id="em2msPKW.0" depart="1.00" departLane="em_1" departPos="5.10" departSpeed="10.66" departDelay="1.00" arrival="80.00" arrivalLane="ms_0" arrivalPos="487.65" arrivalSpeed="14.57" duration="79.00" routeLength="992.88" waitingTime="0.00" waitingCount="0" stopTime="0.00" timeLoss="12.49" rerouteNo="0" devices="tripinfo_em2msPKW.0" vType="PKW" speedFactor="1.08" vaporized=""/>
    <tripinfo id="wm2meLKW.0" depart="0.00" departLane="wm_1" departPos="15.10" departSpeed="13.01" departDelay="0.00" arrival="80.00" arrivalLane="me_0" arrivalPos="490.95" arrivalSpeed="12.01" duration="80.00" routeLength="984.31" waitingTime="0.00" waitingCount="0" stopTime="0.00" timeLoss="4.36" rerouteNo="0" devices="tripinfo_wm2meLKW.0" vType="LKW" speedFactor="0.94" vaporized=""/>
    <tripinfo id="em2mnPKW.0" depart="1.00" departLane="em_0" departPos="5.10" departSpeed="12.45" departDelay="1.00" arrival="81.00" arrivalLane="mn_0" arrivalPos="490.95" arrivalSpeed="12.55" duration="80.00" routeLength="985.65" waitingTime="0.00" waitingCount="0" stopTime="0.00" timeLoss="3.91" rerouteNo="0" devices="tripinfo_em2mnPKW.0" vType="PKW" speedFactor="0.94" vaporized=""/>
    <tripinfo id="sm2meLKW.0" depart="0.00" departLane="sm_0" departPos="15.10" departSpeed="14.55" departDelay="0.00" arrival="89.00" arrivalLane="me_0" arrivalPos="490.95" arrivalSpeed="14.22" duration="89.00" routeLength="975.38" waitingTime="13.00" waitingCount="1" stopTime="0.00" timeLoss="21.05" rerouteNo="0" devices="tripinfo_sm2meLKW.0" vType="LKW" speedFactor="1.05" vaporized=""/>
    <tripinfo id="sm2mwLKW.0" depart="0.00" departLane="sm_1" departPos="15.10" departSpeed="12.21" departDelay="0.00" arrival="90.00" arrivalLane="mw_0" arrivalPos="490.95" arrivalSpeed="11.14" duration="90.00" routeLength="982.88" waitingTime="0.00" waitingCount="0" stopTime="0.00" timeLoss="9.24" rerouteNo="0" devices="tripinfo_sm2mwLKW.0" vType="LKW" speedFactor="0.88" vaporized=""/>
    <tripinfo id="sm2mePKW.0" depart="1.00" departLane="sm_0" departPos="5.10" departSpeed="12.23" departDelay="1.00" arrival="91.00" arrivalLane="me_0" arrivalPos="490.95" arrivalSpeed="15.46" duration="90.00" routeLength="985.38" waitingTime="12.00" waitingCount="1" stopTime="0.00" timeLoss="26.19" rerouteNo="0" devices="tripinfo_sm2mePKW.0" vType="PKW" speedFactor="1.12" vaporized=""/>
    <tripinfo id="sm2mwPKW.0" depart="1.00" departLane="sm_1" departPos="5.10" departSpeed="9.23" departDelay="1.00" arrival="93.00" arrivalLane="mw_0" arrivalPos="490.95" arrivalSpeed="12.39" duration="92.00" routeLength="992.88" waitingTime="0.00" waitingCount="0" stopTime="0.00" timeLoss="15.27" rerouteNo="0" devices="tripinfo_sm2mwPKW.0" vType="PKW" speedFactor="0.94" vaporized=""/>
    <tripinfo id="sm2mwPKW.1" depart="20.00" departLane="sm_1" departPos="5.10" departSpeed="16.05" departDelay="0.22" arrival="94.00" arrivalLane="mw_0" arrivalPos="490.95" arrivalSpeed="15.14" duration="74.00" routeLength="992.88" waitingTime="0.00" waitingCount="0" stopTime="0.00" timeLoss="11.73" rerouteNo="0" devices="tripinfo_sm2mwPKW.1" vType="PKW" speedFactor="1.15" vaporized=""/>
    <tripinfo id="sm2mnLKW.0" depart="3.00" departLane="sm_0" departPos="15.10" departSpeed="11.91" departDelay="3.00" arrival="95.00" arrivalLane="mn_0" arrivalPos="490.95" arrivalSpeed="13.13" duration="92.00" routeLength="984.23" waitingTime="10.00" waitingCount="1" stopTime="0.00" timeLoss="20.44" rerouteNo="0" devices="tripinfo_sm2mnLKW.0" vType="LKW" speedFactor="0.99" vaporized=""/>
    <tripinfo id="nm2meLKW.0" depart="0.00" departLane="nm_1" departPos="15.10" departSpeed="14.54" departDelay="0.00" arrival="100.00" arrivalLane="me_0" arrivalPos="490.95" arrivalSpeed="14.52" duration="100.00" routeLength="983.44" waitingTime="23.00" waitingCount="1" stopTime="0.00" timeLoss="32.28" rerouteNo="0" devices="tripinfo_nm2meLKW.0" vType="LKW" speedFactor="1.05" vaporized=""/>
    <tripinfo id="sm2mnPKW.0" depart="4.00" departLane="sm_0" departPos="5.10" departSpeed="8.83" departDelay="4.00" arrival="101.00" arrivalLane="mn_0" arrivalPos="490.95" arrivalSpeed="12.58" duration="97.00" routeLength="994.23" waitingTime="7.00" waitingCount="1" stopTime="0.00" timeLoss="19.17" rerouteNo="0" devices="tripinfo_sm2mnPKW.0" vType="PKW" speedFactor="0.93" vaporized=""/>
    <tripinfo id="nm2mwLKW.0" depart="3.00" departLane="nm_0" departPos="15.10" departSpeed="7.55" departDelay="3.00" arrival="103.00" arrivalLane="mw_0" arrivalPos="490.95" arrivalSpeed="14.61" duration="100.00" routeLength="975.65" waitingTime="17.00" waitingCount="1" stopTime="0.00" timeLoss="34.75" rerouteNo="0" devices="tripinfo_nm2mwLKW.0" vType="LKW" speedFactor="1.09" vaporized=""/>
    <tripinfo id="nm2msLKW.0" depart="0.00" departLane="nm_0" departPos="15.10" departSpeed="13.04" departDelay="0.00" arrival="104.00" arrivalLane="ms_0" arrivalPos="487.65" arrivalSpeed="12.91" duration="104.00" routeLength="984.23" waitingTime="19.00" waitingCount="1" stopTime="0.00" timeLoss="27.87" rerouteNo="0" devices="tripinfo_nm2msLKW.0" vType="LKW" speedFactor="0.94" vaporized=""/>
    <tripinfo id="nm2mwPKW.0" depart="4.00" departLane="nm_0" departPos="5.10" departSpeed="2.08" departDelay="4.00" arrival="107.00" arrivalLane="mw_0" arrivalPos="490.95" arrivalSpeed="14.14" duration="103.00" routeLength="985.65" waitingTime="15.00" waitingCount="1" stopTime="0.00" timeLoss="33.32" rerouteNo="0" devices="tripinfo_nm2mwPKW.0" vType="PKW" speedFactor="1.03" vaporized=""/>
    <tripinfo id="sm2mnPKW.1" depart="26.00" departLane="sm_0" departPos="5.10" departSpeed="13.83" departDelay="0.65" arrival="107.00" arrivalLane="mn_0" arrivalPos="490.95" arrivalSpeed="13.58" duration="81.00" routeLength="994.23" waitingTime="2.00" waitingCount="1" stopTime="0.00" timeLoss="8.51" rerouteNo="0" devices="tripinfo_sm2mnPKW.1" vType="PKW" speedFactor="0.99" vaporized=""/>
    <tripinfo id="nm2msPKW.0" depart="1.00" departLane="nm_0" departPos="5.10" departSpeed="10.68" departDelay="1.00" arrival="111.00" arrivalLane="ms_0" arrivalPos="487.65" arrivalSpeed="11.71" duration="110.00" routeLength="994.23" waitingTime="17.00" waitingCount="1" stopTime="0.00" timeLoss="26.12" rerouteNo="0" devices="tripinfo_nm2msPKW.0" vType="PKW" speedFactor="0.86" vaporized=""/>
    <tripinfo id="nm2msPKW.1" depart="25.00" departLane="nm_0" departPos="5.10" departSpeed="13.97" departDelay="0.68" arrival="113.00" arrivalLane="ms_0" arrivalPos="487.65" arrivalSpeed="13.59" duration="88.00" routeLength="994.23" waitingTime="3.00" waitingCount="1" stopTime="0.00" timeLoss="15.99" rerouteNo="0" devices="tripinfo_nm2msPKW.1" vType="PKW" speedFactor="1.01" vaporized=""/>
    <tripinfo id="nm2mePKW.0" depart="1.00" departLane="nm_1" departPos="5.10" departSpeed="12.32" departDelay="1.00" arrival="115.00" arrivalLane="me_0" arrivalPos="490.95" arrivalSpeed="11.87" duration="114.00" routeLength="993.44" waitingTime="20.00" waitingCount="2" stopTime="0.00" timeLoss="32.63" rerouteNo="0" devices="tripinfo_nm2mePKW.0" vType="PKW" speedFactor="0.89" vaporized=""/>
    <tripinfo id="wm2mePKW.0" depart="1.00" departLane="wm_1" departPos="5.10" departSpeed="10.01" departDelay="1.00" arrival="121.00" arrivalLane="me_0" arrivalPos="490.95" arrivalSpeed="15.73" duration="120.00" routeLength="994.31" waitingTime="40.00" waitingCount="1" stopTime="0.00" timeLoss="57.73" rerouteNo="0" devices="tripinfo_wm2mePKW.0" vType="PKW" speedFactor="1.16" vaporized=""/>
    <tripinfo id="sm2mwPKW.2" depart="40.00" departLane="sm_1" departPos="5.10" departSpeed="13.30" departDelay="0.44" arrival="121.00" arrivalLane="mw_0" arrivalPos="490.95" arrivalSpeed="12.82" duration="81.00" routeLength="992.88" waitingTime="0.00" waitingCount="0" stopTime="0.00" timeLoss="5.84" rerouteNo="0" devices="tripinfo_sm2mwPKW.2" vType="PKW" speedFactor="0.96" vaporized=""/>
    <tripinfo id="em2mwLKW.0" depart="3.00" departLane="em_0" departPos="15.10" departSpeed="11.15" departDelay="3.00" arrival="123.00" arrivalLane="mw_0" arrivalPos="490.95" arrivalSpeed="13.04" duration="120.00" routeLength="984.31" waitingTime="38.00" waitingCount="1" stopTime="0.00" timeLoss="50.98" rerouteNo="0" devices="tripinfo_em2mwLKW.0" vType="LKW" speedFactor="1.03" vaporized=""/>
    <tripinfo id="wm2msPKW.0" depart="1.00" departLane="wm_0" departPos="5.10" departSpeed="11.17" departDelay="1.00" arrival="129.00" arrivalLane="ms_0" arrivalPos="487.65" arrivalSpeed="11.67" duration="128.00" routeLength="982.35" waitingTime="38.00" waitingCount="1" stopTime="0.00" timeLoss="48.33" rerouteNo="0" devices="tripinfo_wm2msPKW.0" vType="PKW" speedFactor="0.89" vaporized=""/>
    <tripinfo id="wm2msPKW.1" depart="20.00" departLane="wm_0" departPos="5.10" departSpeed="12.95" departDelay="0.43" arrival="131.00" arrivalLane="ms_0" arrivalPos="487.65" arrivalSpeed="11.99" duration="111.00" routeLength="982.35" waitingTime="24.00" waitingCount="1" stopTime="0.00" timeLoss="34.55" rerouteNo="0" devices="tripinfo_wm2msPKW.1" vType="PKW" speedFactor="0.93" vaporized=""/>
    <tripinfo id="wm2msPKW.2" depart="40.00" departLane="wm_0" departPos="5.10" departSpeed="12.52" departDelay="0.87" arrival="133.00" arrivalLane="ms_0" arrivalPos="487.65" arrivalSpeed="12.20" duration="93.00" routeLength="982.35" waitingTime="3.00" waitingCount="1" stopTime="0.00" timeLoss="13.83" rerouteNo="0" devices="tripinfo_wm2msPKW.2" vType="PKW" speedFactor="0.90" vaporized=""/>
    <tripinfo id="wm2msPKW.3" depart="59.00" departLane="wm_0" departPos="5.10" departSpeed="16.25" departDelay="0.30" arrival="134.00" arrivalLane="ms_0" arrivalPos="487.65" arrivalSpeed="13.09" duration="75.00" routeLength="982.35" waitingTime="0.00" waitingCount="0" stopTime="0.00" timeLoss="14.50" rerouteNo="0" devices="tripinfo_wm2msPKW.3" vType="PKW" speedFactor="1.17" vaporized=""/>
    <tripinfo id="em2mwPKW.0" depart="4.00" departLane="em_0" departPos="5.10" departSpeed="7.71" departDelay="4.00" arrival="135.00" arrivalLane="mw_0" arrivalPos="490.95" arrivalSpeed="11.50" duration="131.00" routeLength="994.31" waitingTime="35.00" waitingCount="1" stopTime="0.00" timeLoss="44.13" rerouteNo="0" devices="tripinfo_em2mwPKW.0" vType="PKW" speedFactor="0.83" vaporized=""/>
    <tripinfo id="wm2mePKW.1" depart="7.00" departLane="wm_1" departPos="5.10" departSpeed="11.48" departDelay="0.90" arrival="136.00" arrivalLane="me_0" arrivalPos="490.95" arrivalSpeed="11.00" duration="129.00" routeLength="994.31" waitingTime="31.00" waitingCount="1" stopTime="0.00" timeLoss="41.75" rerouteNo="0" devices="tripinfo_wm2mePKW.1" vType="PKW" speedFactor="0.83" vaporized=""/>
    <tripinfo id="em2mwPKW.1" depart="7.00" departLane="em_0" departPos="5.10" departSpeed="12.13" departDelay="0.46" arrival="136.00" arrivalLane="mw_0" arrivalPos="490.95" arrivalSpeed="11.46" duration="129.00" routeLength="994.31" waitingTime="33.00" waitingCount="1" stopTime="0.00" timeLoss="47.01" rerouteNo="0" devices="tripinfo_em2mwPKW.1" vType="PKW" speedFactor="0.87" vaporized=""/>
    <tripinfo id="wm2mePKW.2" depart="13.00" departLane="wm_1" departPos="5.10" departSpeed="12.75" departDelay="0.80" arrival="138.00" arrivalLane="me_0" arrivalPos="490.95" arrivalSpeed="12.59" duration="125.00" routeLength="994.31" waitingTime="30.00" waitingCount="1" stopTime="0.00" timeLoss="46.09" rerouteNo="0" devices="tripinfo_wm2mePKW.2" vType="PKW" speedFactor="0.92" vaporized=""/>
    <tripinfo id="em2mwPKW.2" depart="14.00" departLane="em_0" departPos="5.10" departSpeed="13.19" departDelay="0.91" arrival="138.00" arrivalLane="mw_0" arrivalPos="490.95" arrivalSpeed="13.13" duration="124.00" routeLength="994.31" waitingTime="32.00" waitingCount="1" stopTime="0.00" timeLoss="48.13" rerouteNo="0" devices="tripinfo_em2mwPKW.2" vType="PKW" speedFactor="0.95" vaporized=""/>
    <tripinfo id="wm2mePKW.3" depart="19.00" departLane="wm_1" departPos="5.10" departSpeed="15.73" departDelay="0.70" arrival="139.00" arrivalLane="me_0" arrivalPos="490.95" arrivalSpeed="13.51" duration="120.00" routeLength="994.31" waitingTime="29.00" waitingCount="1" stopTime="0.00" timeLoss="56.51" rerouteNo="0" devices="tripinfo_wm2mePKW.3" vType="PKW" speedFactor="1.13" vaporized=""/>
    <tripinfo id="em2mwPKW.3" depart="20.00" departLane="em_0" departPos="5.10" departSpeed="16.38" departDelay="0.36" arrival="140.00" arrivalLane="mw_0" arrivalPos="490.95" arrivalSpeed="15.13" duration="120.00" routeLength="994.31" waitingTime="32.00" waitingCount="1" stopTime="0.00" timeLoss="58.48" rerouteNo="0" devices="tripinfo_em2mwPKW.3" vType="PKW" speedFactor="1.18" vaporized=""/>
    <tripinfo id="wm2mePKW.4" depart="25.00" departLane="wm_1" departPos="5.10" departSpeed="16.29" departDelay="0.60" arrival="141.00" arrivalLane="me_0" arrivalPos="490.95" arrivalSpeed="14.76" duration="116.00" routeLength="994.31" waitingTime="28.00" waitingCount="1" stopTime="0.00" timeLoss="54.30" rerouteNo="0" devices="tripinfo_wm2mePKW.4" vType="PKW" speedFactor="1.17" vaporized=""/>
    <tripinfo id="em2mwPKW.4" depart="27.00" departLane="em_0" departPos="5.10" departSpeed="14.17" departDelay="0.82" arrival="141.00" arrivalLane="mw_0" arrivalPos="490.95" arrivalSpeed="13.86" duration="114.00" routeLength="994.31" waitingTime="27.00" waitingCount="1" stopTime="0.00" timeLoss="43.58" rerouteNo="0" devices="tripinfo_em2mwPKW.4" vType="PKW" speedFactor="1.02" vaporized=""/>
    <tripinfo id="wm2mePKW.5" depart="31.00" departLane="wm_1" departPos="5.10" departSpeed="13.53" departDelay="0.50" arrival="143.00" arrivalLane="me_0" arrivalPos="490.95" arrivalSpeed="13.13" duration="112.00" routeLength="994.31" waitingTime="21.00" waitingCount="1" stopTime="0.00" timeLoss="37.57" rerouteNo="0" devices="tripinfo_wm2mePKW.5" vType="PKW" speedFactor="0.97" vaporized=""/>
    <tripinfo id="em2mwPKW.5" depart="33.00" departLane="em_0" departPos="5.10" departSpeed="16.40" departDelay="0.27" arrival="143.00" arrivalLane="mw_0" arrivalPos="490.95" arrivalSpeed="16.19" duration="110.00" routeLength="994.31" waitingTime="24.00" waitingCount="1" stopTime="0.00" timeLoss="48.57" rerouteNo="0" devices="tripinfo_em2mwPKW.5" vType="PKW" speedFactor="1.18" vaporized=""/>
    <tripinfo id="wm2mePKW.6" depart="37.00" departLane="wm_1" departPos="5.10" departSpeed="15.32" departDelay="0.39" arrival="144.00" arrivalLane="me_0" arrivalPos="490.95" arrivalSpeed="14.28" duration="107.00" routeLength="994.31" waitingTime="20.00" waitingCount="1" stopTime="0.00" timeLoss="41.75" rerouteNo="0" devices="tripinfo_wm2mePKW.6" vType="PKW" speedFactor="1.10" vaporized=""/>
    <tripinfo id="em2mwPKW.6" depart="40.00" departLane="em_0" departPos="5.10" departSpeed="14.32" departDelay="0.73" arrival="144.00" arrivalLane="mw_0" arrivalPos="490.95" arrivalSpeed="14.09" duration="104.00" routeLength="994.31" waitingTime="16.00" waitingCount="1" stopTime="0.00" timeLoss="34.54" rerouteNo="0" devices="tripinfo_em2mwPKW.6" vType="PKW" speedFactor="1.03" vaporized=""/>
    <tripinfo id="wm2mePKW.7" depart="43.00" departLane="wm_1" departPos="5.10" departSpeed="15.18" departDelay="0.29" arrival="146.00" arrivalLane="me_0" arrivalPos="490.95" arrivalSpeed="14.90" duration="103.00" routeLength="994.31" waitingTime="15.00" waitingCount="1" stopTime="0.00" timeLoss="36.73" rerouteNo="0" devices="tripinfo_wm2mePKW.7" vType="PKW" speedFactor="1.09" vaporized=""/>
    <tripinfo id="em2mwPKW.7" depart="46.00" departLane="em_0" departPos="5.10" departSpeed="14.43" departDelay="0.19" arrival="146.00" arrivalLane="mw_0" arrivalPos="490.95" arrivalSpeed="13.88" duration="100.00" routeLength="994.31" waitingTime="12.00" waitingCount="1" stopTime="0.00" timeLoss="30.69" rerouteNo="0" devices="tripinfo_em2mwPKW.7" vType="PKW" speedFactor="1.04" vaporized=""/>
    <tripinfo id="wm2mePKW.8" depart="49.00" departLane="wm_1" departPos="5.10" departSpeed="15.12" departDelay="0.19" arrival="147.00" arrivalLane="me_0" arrivalPos="490.95" arrivalSpeed="14.83" duration="98.00" routeLength="994.31" waitingTime="12.00" waitingCount="1" stopTime="0.00" timeLoss="32.09" rerouteNo="0" devices="tripinfo_wm2mePKW.8" vType="PKW" speedFactor="1.09" vaporized=""/>
    <tripinfo id="wm2mnPKW.1" depart="62.00" departLane="wm_2" departPos="5.10" departSpeed="12.49" departDelay="0.98" arrival="148.00" arrivalLane="mn_0" arrivalPos="490.95" arrivalSpeed="12.38" duration="86.00" routeLength="993.45" waitingTime="0.00" waitingCount="0" stopTime="0.00" timeLoss="5.71" rerouteNo="0" devices="tripinfo_wm2mnPKW.1" vType="PKW" speedFactor="0.90" vaporized=""/>
    <tripinfo id="wm2meLKW.1" depart="51.00" departLane="wm_1" departPos="15.10" departSpeed="13.86" departDelay="1.00" arrival="149.00" arrivalLane="me_0" arrivalPos="490.95" arrivalSpeed="12.83" duration="98.00" routeLength="984.31" waitingTime="9.00" waitingCount="1" stopTime="0.00" timeLoss="26.56" rerouteNo="0" devices="tripinfo_wm2meLKW.1" vType="LKW" speedFactor="1.00" vaporized=""/>
    <tripinfo id="em2mwPKW.8" depart="53.00" departLane="em_0" departPos="5.10" departSpeed="12.19" departDelay="0.64" arrival="149.00" arrivalLane="mw_0" arrivalPos="490.95" arrivalSpeed="11.40" duration="96.00" routeLength="994.31" waitingTime="1.00" waitingCount="1" stopTime="0.00" timeLoss="13.83" rerouteNo="0" devices="tripinfo_em2mwPKW.8" vType="PKW" speedFactor="0.88" vaporized=""/>
    <tripinfo id="em2mnPKW.1" depart="70.00" departLane="em_0" departPos="5.10" departSpeed="15.56" departDelay="0.77" arrival="149.00" arrivalLane="mn_0" arrivalPos="490.95" arrivalSpeed="14.43" duration="79.00" routeLength="985.65" waitingTime="0.00" waitingCount="0" stopTime="0.00" timeLoss="15.40" rerouteNo="0" devices="tripinfo_em2mnPKW.1" vType="PKW" speedFactor="1.12" vaporized=""/>
    <tripinfo id="em2mwLKW.1" depart="55.00" departLane="em_0" departPos="15.10" departSpeed="10.21" departDelay="1.27" arrival="151.00" arrivalLane="mw_0" arrivalPos="490.95" arrivalSpeed="10.66" duration="96.00" routeLength="984.31" waitingTime="0.00" waitingCount="0" stopTime="0.00" timeLoss="12.18" rerouteNo="0" devices="tripinfo_em2mwLKW.1" vType="LKW" speedFactor="0.85" vaporized=""/>
    <tripinfo id="wm2mePKW.9" depart="55.00" departLane="wm_1" departPos="5.10" departSpeed="11.88" departDelay="0.09" arrival="152.00" arrivalLane="me_0" arrivalPos="490.95" arrivalSpeed="11.06" duration="97.00" routeLength="994.31" waitingTime="1.00" waitingCount="1" stopTime="0.00" timeLoss="13.21" rerouteNo="0" devices="tripinfo_wm2mePKW.9" vType="PKW" speedFactor="0.85" vaporized=""/>
    <tripinfo id="em2mwPKW.9" depart="59.00" departLane="em_0" departPos="5.10" departSpeed="14.13" departDelay="0.09" arrival="153.00" arrivalLane="mw_0" arrivalPos="490.95" arrivalSpeed="14.06" duration="94.00" routeLength="994.31" waitingTime="0.00" waitingCount="0" stopTime="0.00" timeLoss="23.43" rerouteNo="0" devices="tripinfo_em2mwPKW.9" vType="PKW" speedFactor="1.02" vaporized=""/>
    <tripinfo id="wm2mePKW.10" depart="62.00" departLane="wm_1" departPos="5.10" departSpeed="13.84" departDelay="0.99" arrival="154.00" arrivalLane="me_0" arrivalPos="490.95" arrivalSpeed="13.17" duration="92.00" routeLength="994.31" waitingTime="0.00" waitingCount="0" stopTime="0.00" timeLoss="19.59" rerouteNo="0" devices="tripinfo_wm2mePKW.10" vType="PKW" speedFactor="1.00" vaporized=""/>
    <tripinfo id="em2mwPKW.10" depart="66.00" departLane="em_0" departPos="5.10" departSpeed="14.23" departDelay="0.55" arrival="155.00" arrivalLane="mw_0" arrivalPos="490.95" arrivalSpeed="13.91" duration="89.00" routeLength="994.31" waitingTime="0.00" waitingCount="0" stopTime="0.00" timeLoss="18.58" rerouteNo="0" devices="tripinfo_em2mwPKW.10" vType="PKW" speedFactor="1.02" vaporized=""/>
    <tripinfo id="wm2mePKW.11" depart="68.00" departLane="wm_1" departPos="5.10" departSpeed="15.05" departDelay="0.89" arrival="155.00" arrivalLane="me_0" arrivalPos="490.95" arrivalSpeed="14.18" duration="87.00" routeLength="994.31" waitingTime="0.00" waitingCount="0" stopTime="0.00" timeLoss="20.86" rerouteNo="0" devices="tripinfo_wm2mePKW.11" vType="PKW" speedFactor="1.08" vaporized=""/>
    <tripinfo id="em2mwPKW.11" depart="72.00" departLane="em_0" departPos="5.10" departSpeed="14.12" departDelay="0.00" arrival="157.00" arrivalLane="mw_0" arrivalPos="490.95" arrivalSpeed="13.29" duration="85.00" routeLength="994.31" waitingTime="0.00" waitingCount="0" stopTime="0.00" timeLoss="13.87" rerouteNo="0" devices="tripinfo_em2mwPKW.11" vType="PKW" speedFactor="1.02" vaporized=""/>
    <tripinfo id="wm2mePKW.12" depart="74.00" departLane="wm_1" departPos="5.10" departSpeed="13.03" departDelay="0.79" arrival="157.00" arrivalLane="me_0" arrivalPos="490.95" arrivalSpeed="12.45" duration="83.00" routeLength="994.31" waitingTime="0.00" waitingCount="0" stopTime="0.00" timeLoss="6.53" rerouteNo="0" devices="tripinfo_wm2mePKW.12" vType="PKW" speedFactor="0.94" vaporized=""/>
    <tripinfo id="em2mwPKW.12" depart="79.00" departLane="em_0" departPos="5.10" departSpeed="14.46" departDelay="0.46" arrival="158.00" arrivalLane="mw_0" arrivalPos="490.95" arrivalSpeed="13.25" duration="79.00" routeLength="994.31" waitingTime="0.00" waitingCount="0" stopTime="0.00" timeLoss="10.13" rerouteNo="0" devices="tripinfo_em2mwPKW.12" vType="PKW" speedFactor="1.04" vaporized=""/>
    <tripinfo id="wm2mePKW.13" depart="80.00" departLane="wm_1" departPos="5.10" departSpeed="14.22" departDelay="0.69" arrival="159.00" arrivalLane="me_0" arrivalPos="490.95" arrivalSpeed="13.95" duration="79.00" routeLength="994.31" waitingTime="0.00" waitingCount="0" stopTime="0.00" timeLoss="8.46" rerouteNo="0" devices="tripinfo_wm2mePKW.13" vType="PKW" speedFactor="1.02" vaporized=""/>
    <tripinfo id="sm2mwPKW.3" depart="60.00" departLane="sm_1" departPos="5.10" departSpeed="15.23" departDelay="0.66" arrival="160.00" arrivalLane="mw_0" arrivalPos="490.95" arrivalSpeed="14.44" duration="100.00" routeLength="992.88" waitingTime="24.00" waitingCount="1" stopTime="0.00" timeLoss="34.33" rerouteNo="0" devices="tripinfo_sm2mwPKW.3" vType="PKW" speedFactor="1.10" vaporized=""/>
    <tripinfo id="em2msPKW.1" depart="75.00" departLane="em_1" departPos="5.10" departSpeed="12.26" departDelay="0.00" arrival="161.00" arrivalLane="ms_0" arrivalPos="487.65" arrivalSpeed="12.26" duration="86.00" routeLength="992.88" waitingTime="0.00" waitingCount="0" stopTime="0.00" timeLoss="4.73" rerouteNo="0" devices="tripinfo_em2msPKW.1" vType="PKW" speedFactor="0.88" vaporized=""/>
    <tripinfo id="sm2mwPKW.4" depart="80.00" departLane="sm_1" departPos="5.10" departSpeed="14.21" departDelay="0.88" arrival="163.00" arrivalLane="mw_0" arrivalPos="490.95" arrivalSpeed="13.21" duration="83.00" routeLength="992.88" waitingTime="2.00" waitingCount="1" stopTime="0.00" timeLoss="12.77" rerouteNo="0" devices="tripinfo_sm2mwPKW.4" vType="PKW" speedFactor="1.02" vaporized=""/>
    <tripinfo id="sm2mePKW.1" depart="63.00" departLane="sm_0" departPos="5.10" departSpeed="15.88" departDelay="0.93" arrival="168.00" arrivalLane="me_0" arrivalPos="490.95" arrivalSpeed="15.42" duration="105.00" routeLength="985.38" waitingTime="34.00" waitingCount="1" stopTime="0.00" timeLoss="42.35" rerouteNo="0" devices="tripinfo_sm2mePKW.1" vType="PKW" speedFactor="1.14" vaporized=""/>
    <tripinfo id="sm2mwPKW.5" depart="99.00" departLane="sm_1" departPos="5.10" departSpeed="15.11" departDelay="0.10" arrival="168.00" arrivalLane="mw_0" arrivalPos="490.95" arrivalSpeed="13.89" duration="69.00" routeLength="992.88" waitingTime="0.00" waitingCount="0" stopTime="0.00" timeLoss="2.70" rerouteNo="0" devices="tripinfo_sm2mwPKW.5" vType="PKW" speedFactor="1.09" vaporized=""/>
    <tripinfo id="sm2mnPKW.2" depart="51.00" departLane="sm_0" departPos="5.10" departSpeed="12.52" departDelay="0.30" arrival="176.00" arrivalLane="mn_0" arrivalPos="490.95" arrivalSpeed="11.91" duration="125.00" routeLength="994.23" waitingTime="35.00" waitingCount="1" stopTime="0.00" timeLoss="44.81" rerouteNo="0" devices="tripinfo_sm2mnPKW.2" vType="PKW" speedFactor="0.90" vaporized=""/>
    <tripinfo id="sm2mnPKW.3" depart="77.00" departLane="sm_0" departPos="5.10" departSpeed="12.60" departDelay="0.94" arrival="179.00" arrivalLane="mn_0" arrivalPos="490.95" arrivalSpeed="11.53" duration="102.00" routeLength="994.23" waitingTime="13.00" waitingCount="1" stopTime="0.00" timeLoss="22.55" rerouteNo="0" devices="tripinfo_sm2mnPKW.3" vType="PKW" speedFactor="0.91" vaporized=""/>
    <tripinfo id="nm2msPKW.2" depart="49.00" departLane="nm_0" departPos="5.10" departSpeed="14.50" departDelay="0.35" arrival="180.00" arrivalLane="ms_0" arrivalPos="487.65" arrivalSpeed="13.40" duration="131.00" routeLength="994.23" waitingTime="53.00" waitingCount="1" stopTime="0.00" timeLoss="62.32" rerouteNo="0" devices="tripinfo_nm2msPKW.2" vType="PKW" speedFactor="1.04" vaporized=""/>
    <tripinfo id="sm2mnPKW.4" depart="102.00" departLane="sm_0" departPos="5.10" departSpeed="13.87" departDelay="0.59" arrival="180.00" arrivalLane="mn_0" arrivalPos="490.95" arrivalSpeed="13.82" duration="78.00" routeLength="994.23" waitingTime="0.00" waitingCount="0" stopTime="0.00" timeLoss="6.32" rerouteNo="0" devices="tripinfo_sm2mnPKW.4" vType="PKW" speedFactor="1.00" vaporized=""/>
    <tripinfo id="nm2mwPKW.1" depart="60.00" departLane="nm_0" departPos="5.10" departSpeed="13.94" departDelay="0.00" arrival="183.00" arrivalLane="mw_0" arrivalPos="490.95" arrivalSpeed="13.05" duration="123.00" routeLength="985.65" waitingTime="42.00" waitingCount="1" stopTime="0.00" timeLoss="51.90" rerouteNo="0" devices="tripinfo_nm2mwPKW.1" vType="PKW" speedFactor="1.00" vaporized=""/>
    <tripinfo id="nm2mePKW.1" depart="67.00" departLane="nm_1" departPos="5.10" departSpeed="13.48" departDelay="0.33" arrival="184.00" arrivalLane="me_0" arrivalPos="490.95" arrivalSpeed="12.26" duration="117.00" routeLength="993.44" waitingTime="33.00" waitingCount="1" stopTime="0.00" timeLoss="42.43" rerouteNo="0" devices="tripinfo_nm2mePKW.1" vType="PKW" speedFactor="0.97" vaporized=""/>
    <tripinfo id="nm2msPKW.3" depart="73.00" departLane="nm_0" departPos="5.10" departSpeed="13.72" departDelay="0.03" arrival="186.00" arrivalLane="ms_0" arrivalPos="487.65" arrivalSpeed="13.70" duration="113.00" routeLength="994.23" waitingTime="29.00" waitingCount="1" stopTime="0.00" timeLoss="40.10" rerouteNo="0" devices="tripinfo_nm2msPKW.3" vType="PKW" speedFactor="0.99" vaporized=""/>